[Molden Format]
[FR-COORD] # Coordinates in bohr
  C    -0.022600    +1.047415    -0.000090 
  C    +2.257685    -0.766357    -0.000112 
  H    +4.011199    +0.299020    +0.000196 
  H    +2.213809    -1.964268    +1.664520 
  H    +2.214160    -1.963882    -1.665032 
  H    +0.071049    +2.274403    +1.669168 
  H    +0.070754    +2.274068    -1.669604 
  O    -2.295791    -0.432831    +0.000267 
  H    -3.665653    +0.843426    -0.000161 
[FREQ] # Frequencies in cm^-1
  164.9029
  256.6008
  385.1289
  696.2135
  873.6077
  987.5212
 1037.0150
 1067.9680
 1158.7743
 1279.8171
 1315.6134
 1318.7189
 1330.0554
 1443.3186
 1550.3169
 2570.8381
 2587.5736
 2714.1640
 2793.5007
 2795.2702
 3082.0075
[FR-NORM-COORD] # Displacements in bohr
vibration  1
      +0.000     -0.000     +0.206
      -0.000     +0.000     +0.018
      +0.000     +0.000     -0.526
      +0.325     +0.300     +0.231
      -0.325     -0.300     +0.231
      -0.047     -0.120     +0.175
      +0.047     +0.120     +0.175
      -0.000     -0.000     -0.298
      +0.000     +0.000     +0.007
vibration  2
      +0.000     +0.000     +0.145
      -0.000     -0.000     -0.088
      +0.000     -0.000     -0.089
      +0.066     -0.028     -0.055
      -0.066     +0.028     -0.055
      +0.033     -0.006     +0.066
      -0.033     +0.006     +0.066
      -0.000     +0.000     +0.302
      +0.000     -0.000     -0.919
vibration  3
      -0.035     -0.371     +0.000
      +0.321     +0.003     -0.000
      -0.035     +0.282     -0.000
      +0.350     +0.003     +0.007
      +0.350     +0.003     -0.007
      +0.032     -0.148     -0.007
      +0.032     -0.148     +0.007
      -0.508     +0.221     +0.000
      +0.007     +0.283     -0.000
vibration  4
      -0.000     -0.000     -0.236
      +0.000     -0.000     -0.184
      -0.000     +0.000     +0.148
      -0.329     +0.313     +0.139
      +0.329     -0.313     +0.139
      +0.222     -0.369     +0.161
      -0.222     +0.369     +0.161
      -0.000     +0.000     +0.111
      -0.000     -0.000     -0.036
vibration  5
      +0.046     -0.107     -0.000
      -0.439     -0.086     +0.000
      -0.524     +0.498     +0.000
      +0.064     +0.022     +0.043
      +0.064     +0.022     -0.043
      +0.277     -0.083     +0.009
      +0.277     -0.083     -0.009
      +0.273     +0.055     -0.000
      +0.032     -0.062     +0.000
vibration  6
      +0.138     -0.349     +0.000
      -0.063     +0.295     -0.000
      +0.028     +0.025     +0.000
      -0.331     +0.189     +0.025
      -0.331     +0.189     -0.025
      -0.086     -0.205     +0.032
      -0.087     -0.205     -0.032
      +0.066     -0.096     -0.000
      +0.438     +0.409     -0.000
vibration  7
      -0.000     +0.000     +0.340
      -0.000     -0.000     -0.023
      -0.000     +0.000     +0.058
      -0.016     +0.032     +0.016
      +0.017     -0.032     +0.016
      +0.584     +0.245     -0.055
      -0.584     -0.245     -0.055
      +0.000     +0.000     -0.263
      +0.000     -0.000     -0.011
vibration  8
      -0.131     +0.024     -0.000
      -0.084     -0.242     +0.000
      -0.152     +0.080     -0.000
      +0.196     -0.152     -0.018
      +0.196     -0.152     +0.018
      -0.491     +0.069     -0.008
      -0.490     +0.069     +0.009
      +0.345     +0.143     +0.000
      +0.294     +0.217     -0.000
vibration  9
      +0.000     +0.000     +0.421
      -0.000     -0.000     -0.384
      -0.000     +0.000     -0.008
      -0.319     +0.263     -0.002
      +0.320     -0.263     -0.002
      -0.283     +0.293     +0.002
      +0.283     -0.293     +0.002
      -0.000     -0.000     -0.031
      +0.000     +0.000     +0.008
vibration  10
      +0.112     +0.070     -0.000
      -0.065     -0.031     +0.000
      -0.079     +0.060     +0.000
      +0.037     -0.068     -0.034
      +0.037     -0.068     +0.034
      +0.131     +0.419     -0.281
      +0.131     +0.420     +0.280
      -0.240     -0.411     +0.000
      +0.305     +0.299     -0.000
vibration  11
      +0.000     -0.000     -0.003
      +0.000     -0.000     +0.308
      -0.000     +0.000     -0.712
      -0.395     -0.201     -0.013
      +0.394     +0.200     -0.013
      +0.046     -0.012     +0.007
      -0.046     +0.012     +0.008
      -0.000     +0.000     -0.007
      -0.000     -0.000     -0.002
vibration  12
      -0.058     +0.078     -0.000
      -0.342     -0.076     +0.000
      +0.085     -0.437     -0.001
      +0.328     +0.347     +0.284
      +0.329     +0.347     -0.284
      +0.059     -0.048     +0.055
      +0.059     -0.048     -0.055
      -0.002     -0.095     +0.000
      +0.121     +0.101     -0.000
vibration  13
      -0.202     +0.090     -0.000
      -0.264     +0.401     +0.000
      +0.116     -0.215     -0.000
      +0.192     -0.293     -0.342
      +0.192     -0.293     +0.342
      +0.160     -0.152     +0.124
      +0.160     -0.152     -0.124
      +0.053     -0.080     +0.000
      +0.169     +0.130     -0.000
vibration  14
      +0.265     +0.572     -0.000
      +0.096     -0.195     +0.000
      -0.121     +0.189     +0.000
      -0.028     -0.044     +0.042
      -0.028     -0.044     -0.042
      -0.044     -0.172     +0.351
      -0.044     -0.172     -0.351
      -0.257     -0.294     +0.000
      +0.108     +0.153     -0.000
vibration  15
      -0.745     +0.135     +0.000
      +0.337     -0.214     -0.000
      +0.065     +0.094     +0.000
      -0.111     +0.025     +0.105
      -0.111     +0.025     -0.105
      +0.223     -0.013     +0.040
      +0.223     -0.013     -0.040
      +0.171     -0.025     +0.000
      +0.228     +0.147     -0.000
vibration  16
      +0.034     +0.168     -0.000
      -0.185     +0.137     -0.000
      +0.412     +0.249     +0.000
      -0.002     -0.283     +0.383
      -0.002     -0.283     -0.383
      -0.015     -0.205     -0.272
      -0.015     -0.205     +0.272
      -0.001     -0.010     +0.000
      -0.006     +0.009     -0.000
vibration  17
      -0.001     -0.324     +0.000
      -0.126     +0.109     +0.000
      +0.252     +0.138     +0.000
      -0.008     -0.158     +0.224
      -0.008     -0.158     -0.224
      +0.027     +0.336     +0.451
      +0.027     +0.336     -0.451
      +0.004     +0.019     -0.000
      +0.008     -0.020     +0.000
vibration  18
      +0.000     +0.000     +0.443
      -0.000     +0.000     -0.012
      -0.000     -0.000     -0.002
      -0.010     +0.006     +0.002
      +0.010     -0.006     +0.002
      -0.026     -0.366     -0.517
      +0.026     +0.366     -0.517
      -0.000     +0.000     -0.005
      +0.000     -0.000     -0.004
vibration  19
      -0.006     -0.008     -0.000
      +0.273     +0.347     +0.000
      -0.618     -0.384     -0.000
      -0.016     -0.222     +0.298
      -0.016     -0.222     -0.298
      +0.005     -0.004     +0.001
      +0.005     -0.004     -0.001
      -0.002     +0.002     +0.000
      -0.006     +0.001     +0.000
vibration  20
      -0.000     -0.000     +0.009
      +0.000     +0.000     -0.441
      -0.000     -0.000     +0.011
      -0.016     -0.363     +0.520
      +0.016     +0.363     +0.520
      -0.009     +0.008     +0.002
      +0.009     -0.008     +0.002
      +0.000     +0.000     +0.000
      -0.000     +0.000     -0.000
vibration  21
      +0.022     +0.024     -0.000
      +0.003     +0.000     -0.000
      -0.003     -0.002     -0.000
      +0.001     -0.001     +0.001
      +0.001     -0.001     -0.001
      +0.001     -0.007     -0.009
      +0.001     -0.007     +0.009
      -0.266     +0.211     -0.000
      +0.690     -0.637     +0.000
