[Molden Format]
[FR-COORD] # Coordinates in bohr
  C    -0.094823    +1.064033    -0.000093 
  C    +2.185462    -0.749740    -0.000115 
  H    +3.938976    +0.315637    +0.000193 
  H    +2.141586    -1.947650    +1.664517 
  H    +2.141937    -1.947264    -1.665035 
  H    -0.001174    +2.291021    +1.669164 
  H    -0.001469    +2.290685    -1.669607 
  O    -2.368014    -0.416213    +0.000264 
  H    -3.737875    +0.860043    -0.000164 
[FREQ] # Frequencies in cm^-1
  164.9047
  347.9887
  393.3581
  696.7330
  874.6739
 1032.4585
 1037.0871
 1128.3611
 1158.8091
 1309.5153
 1315.6151
 1324.0279
 1403.6597
 1484.5977
 1711.8476
 2570.8848
 2587.8344
 2714.1843
 2793.5306
 2795.2702
 4229.9546
[FR-NORM-COORD] # Displacements in bohr
vibration  1
      -0.000     -0.000     -0.207
      +0.000     -0.000     -0.017
      -0.000     -0.000     +0.526
      -0.325     -0.300     -0.231
      +0.325     +0.300     -0.231
      +0.047     +0.120     -0.176
      -0.047     -0.120     -0.176
      +0.000     +0.000     +0.297
      -0.000     -0.000     -0.004
vibration  2
      -0.000     -0.000     -0.112
      -0.000     +0.000     +0.061
      -0.000     +0.000     +0.069
      -0.058     +0.030     +0.046
      +0.058     -0.030     +0.046
      -0.011     -0.008     -0.045
      +0.011     +0.008     -0.045
      +0.000     -0.000     -0.221
      -0.000     +0.000     +0.955
vibration  3
      +0.026     +0.362     -0.000
      -0.321     +0.006     +0.000
      +0.035     -0.279     +0.000
      -0.352     +0.001     -0.008
      -0.352     +0.000     +0.008
      -0.045     +0.145     +0.007
      -0.045     +0.145     -0.007
      +0.524     -0.270     -0.000
      -0.002     -0.212     -0.000
vibration  4
      +0.000     +0.000     +0.235
      +0.000     -0.000     +0.185
      +0.000     -0.000     -0.147
      +0.329     -0.312     -0.139
      -0.329     +0.312     -0.139
      -0.222     +0.369     -0.162
      +0.222     -0.369     -0.162
      +0.000     -0.000     -0.113
      +0.000     +0.000     +0.059
vibration  5
      -0.049     +0.110     +0.000
      +0.441     +0.082     -0.000
      +0.524     -0.498     -0.000
      -0.059     -0.025     -0.043
      -0.059     -0.025     +0.043
      -0.275     +0.084     -0.010
      -0.275     +0.084     +0.010
      -0.283     -0.042     +0.000
      -0.027     +0.042     +0.000
vibration  6
      +0.213     -0.329     +0.000
      +0.030     +0.378     -0.000
      +0.123     -0.024     +0.000
      -0.395     +0.249     +0.035
      -0.395     +0.249     -0.035
      +0.202     -0.236     +0.042
      +0.201     -0.236     -0.042
      -0.142     -0.076     -0.000
      +0.102     +0.131     -0.000
vibration  7
      +0.000     -0.000     -0.340
      +0.000     +0.000     +0.023
      +0.000     -0.000     -0.058
      +0.017     -0.032     -0.016
      -0.017     +0.032     -0.016
      -0.584     -0.245     +0.055
      +0.584     +0.245     +0.055
      -0.000     -0.000     +0.263
      -0.000     +0.000     +0.017
vibration  8
      +0.029     -0.274     +0.000
      -0.017     -0.036     -0.000
      -0.085     +0.102     +0.000
      -0.081     +0.011     +0.016
      -0.081     +0.011     -0.016
      -0.500     -0.170     +0.060
      -0.500     -0.170     -0.060
      +0.373     +0.292     -0.000
      +0.237     +0.212     -0.000
vibration  9
      +0.000     +0.000     +0.421
      -0.000     -0.000     -0.384
      -0.000     +0.000     -0.008
      -0.319     +0.263     -0.002
      +0.320     -0.263     -0.002
      -0.283     +0.293     +0.002
      +0.283     -0.292     +0.002
      -0.000     -0.000     -0.031
      +0.000     +0.000     +0.011
vibration  10
      -0.214     +0.115     +0.000
      -0.282     +0.105     -0.000
      +0.153     -0.415     +0.000
      +0.288     +0.152     +0.081
      +0.288     +0.152     -0.081
      +0.070     -0.341     +0.274
      +0.070     -0.341     -0.274
      +0.135     +0.109     -0.000
      -0.053     -0.072     +0.000
vibration  11
      +0.000     -0.000     +0.003
      +0.000     +0.000     -0.308
      -0.000     +0.000     +0.712
      +0.395     +0.201     +0.013
      -0.395     -0.201     +0.013
      -0.046     +0.012     -0.008
      +0.046     -0.011     -0.007
      -0.000     -0.000     +0.007
      +0.000     +0.000     +0.002
vibration  12
      +0.150     -0.039     -0.000
      -0.047     -0.338     -0.000
      -0.049     -0.110     +0.000
      +0.071     +0.426     +0.423
      +0.071     +0.426     -0.423
      -0.075     +0.170     -0.129
      -0.075     +0.170     +0.129
      -0.076     -0.067     +0.000
      +0.028     +0.038     -0.000
vibration  13
      +0.003     -0.388     +0.000
      -0.389     +0.328     +0.000
      +0.082     -0.307     -0.000
      +0.201     -0.027     -0.134
      +0.201     -0.027     +0.134
      +0.033     +0.214     -0.306
      +0.033     +0.214     +0.306
      +0.086     -0.021     +0.000
      +0.211     +0.194     -0.000
vibration  14
      -0.636     -0.301     +0.000
      +0.262     -0.070     -0.000
      +0.119     +0.000     +0.000
      -0.118     +0.065     +0.071
      -0.117     +0.065     -0.071
      +0.149     +0.045     -0.168
      +0.149     +0.045     +0.168
      +0.304     +0.300     -0.000
      -0.179     -0.229     +0.000
vibration  15
      +0.438     -0.220     +0.000
      -0.122     +0.120     -0.000
      -0.008     -0.047     -0.000
      +0.022     +0.012     -0.049
      +0.022     +0.012     +0.049
      -0.136     -0.018     -0.068
      -0.136     -0.018     +0.068
      -0.049     +0.245     -0.000
      -0.562     -0.545     +0.000
vibration  16
      -0.034     -0.167     +0.000
      +0.186     -0.138     +0.000
      -0.413     -0.250     -0.000
      +0.002     +0.284     -0.384
      +0.002     +0.284     +0.385
      +0.015     +0.203     +0.269
      +0.015     +0.203     -0.269
      +0.003     +0.008     -0.000
      -0.001     -0.006     +0.000
vibration  17
      +0.000     +0.326     -0.000
      +0.125     -0.108     -0.000
      -0.250     -0.137     -0.000
      +0.008     +0.157     -0.222
      +0.008     +0.157     +0.222
      -0.027     -0.337     -0.452
      -0.027     -0.337     +0.452
      -0.008     -0.017     +0.000
      +0.006     +0.017     -0.000
vibration  18
      -0.000     -0.000     -0.443
      +0.000     -0.000     +0.012
      +0.000     +0.000     +0.002
      +0.010     -0.006     -0.002
      -0.010     +0.006     -0.002
      +0.026     +0.366     +0.517
      -0.026     -0.366     +0.517
      -0.000     -0.000     +0.005
      +0.000     +0.000     +0.005
vibration  19
      +0.005     +0.008     +0.000
      -0.273     -0.347     -0.000
      +0.618     +0.384     +0.000
      +0.016     +0.222     -0.298
      +0.016     +0.222     +0.298
      -0.005     +0.004     -0.001
      -0.005     +0.004     +0.001
      +0.003     -0.004     +0.000
      +0.005     +0.004     -0.000
vibration  20
      +0.000     +0.000     -0.009
      -0.000     -0.000     +0.441
      +0.000     +0.000     -0.011
      +0.016     +0.363     -0.520
      -0.016     -0.363     -0.520
      +0.009     -0.008     -0.002
      -0.009     +0.008     -0.002
      +0.000     -0.000     -0.000
      +0.000     +0.000     +0.000
vibration  21
      -0.010     -0.014     +0.000
      -0.000     +0.001     +0.000
      +0.001     -0.000     -0.000
      -0.001     +0.000     -0.000
      -0.001     +0.000     +0.000
      -0.002     +0.002     +0.002
      -0.002     +0.002     -0.002
      +0.190     -0.154     +0.000
      -0.717     +0.652     -0.000
