[Molden Format]
[FR-COORD] # Coordinates in bohr
  C    +0.160932    +1.067078    -0.000106 
  C    +2.441217    -0.746694    -0.000128 
  H    +4.194731    +0.318683    +0.000180 
  H    +2.397341    -1.944604    +1.664504 
  H    +2.397692    -1.944219    -1.665048 
  H    +0.254580    +2.294066    +1.669151 
  H    +0.254286    +2.293731    -1.669620 
  O    -2.112259    -0.413168    +0.000251 
  H    -3.482121    +0.863089    -0.000177 
[FREQ] # Frequencies in cm^-1
  222.3004
  260.6195
  428.9921
  951.3824
 1040.1836
 1122.3726
 1297.8326
 1345.3066
 1427.7271
 1510.7090
 1681.2546
 1744.2290
 1819.9923
 1825.3724
 1850.9143
 3081.6335
 3540.0111
 3574.5399
 3650.7932
 3758.9007
 3761.5953
[FR-NORM-COORD] # Displacements in bohr
vibration  1
      +0.000     -0.000     +0.202
      -0.000     +0.000     +0.019
      +0.000     +0.000     -0.532
      +0.318     +0.318     +0.242
      -0.319     -0.318     +0.242
      -0.030     -0.078     +0.117
      +0.030     +0.078     +0.117
      -0.000     -0.000     -0.295
      +0.000     +0.000     +0.158
vibration  2
      +0.000     +0.000     +0.205
      -0.000     -0.000     -0.133
      +0.000     -0.000     -0.164
      +0.105     +0.023     -0.020
      -0.105     -0.023     -0.020
      +0.023     -0.030     +0.083
      -0.023     +0.030     +0.083
      -0.000     +0.000     +0.265
      +0.000     -0.000     -0.896
vibration  3
      -0.023     -0.414     +0.000
      +0.438     +0.077     -0.000
      -0.003     +0.240     -0.000
      +0.288     +0.023     +0.005
      +0.288     +0.023     -0.005
      +0.015     -0.112     -0.007
      +0.015     -0.112     +0.007
      -0.518     +0.175     +0.000
      +0.019     +0.284     -0.000
vibration  4
      -0.000     +0.000     +0.245
      -0.000     +0.000     +0.139
      +0.000     -0.000     -0.173
      +0.301     -0.296     -0.166
      -0.301     +0.296     -0.166
      -0.168     +0.399     -0.215
      +0.168     -0.399     -0.215
      +0.000     -0.000     -0.105
      +0.000     +0.000     +0.023
vibration  5
      -0.036     +0.375     -0.000
      +0.458     -0.213     +0.000
      +0.261     -0.259     -0.000
      +0.041     -0.088     -0.014
      +0.041     -0.088     +0.014
      -0.021     +0.116     +0.001
      -0.021     +0.116     -0.001
      -0.278     +0.038     -0.000
      -0.461     -0.359     +0.000
vibration  6
      +0.050     +0.044     +0.000
      +0.219     +0.205     -0.000
      +0.344     -0.400     +0.000
      -0.275     +0.025     -0.033
      -0.275     +0.024     +0.033
      -0.198     +0.028     -0.002
      -0.198     +0.028     +0.002
      -0.208     -0.277     +0.000
      +0.356     +0.381     -0.000
vibration  7
      -0.519     +0.126     +0.000
      +0.144     -0.326     -0.000
      -0.025     +0.024     +0.000
      +0.207     -0.111     +0.002
      +0.207     -0.111     -0.002
      -0.360     +0.069     -0.001
      -0.360     +0.069     +0.001
      +0.320     +0.131     -0.000
      +0.247     +0.162     -0.000
vibration  8
      -0.000     -0.000     -0.449
      +0.000     -0.000     +0.249
      +0.000     -0.000     -0.141
      +0.197     -0.206     -0.071
      -0.197     +0.206     -0.071
      -0.363     -0.329     +0.125
      +0.363     +0.329     +0.125
      +0.000     +0.000     +0.180
      +0.000     +0.000     +0.005
vibration  9
      +0.220     +0.501     -0.000
      -0.132     -0.230     +0.000
      -0.188     +0.183     -0.000
      +0.230     -0.030     +0.037
      +0.230     -0.030     -0.037
      +0.118     +0.157     -0.007
      +0.119     +0.157     +0.007
      -0.283     -0.430     +0.000
      +0.223     +0.241     -0.000
vibration  10
      +0.000     +0.000     -0.169
      -0.000     +0.000     +0.317
      +0.000     -0.000     -0.109
      +0.197     -0.216     -0.052
      -0.197     +0.216     -0.052
      +0.569     -0.122     +0.008
      -0.569     +0.122     +0.008
      -0.000     -0.000     -0.074
      +0.000     +0.000     -0.011
vibration  11
      -0.469     +0.042     +0.000
      -0.086     +0.211     -0.000
      +0.216     -0.329     +0.000
      +0.194     -0.145     -0.141
      +0.194     -0.145     +0.141
      +0.435     -0.062     +0.022
      +0.435     -0.062     -0.022
      +0.068     -0.058     +0.000
      +0.121     +0.071     -0.000
vibration  12
      +0.364     -0.082     -0.000
      -0.395     +0.209     -0.000
      +0.147     -0.373     +0.000
      +0.387     -0.083     -0.092
      +0.387     -0.083     +0.093
      -0.275     -0.018     +0.014
      -0.275     -0.018     -0.014
      -0.032     +0.057     -0.000
      -0.096     -0.063     +0.000
vibration  13
      +0.000     +0.000     +0.046
      -0.000     -0.000     +0.196
      +0.000     +0.000     -0.716
      -0.453     -0.125     -0.052
      +0.453     +0.125     -0.051
      -0.007     +0.022     +0.002
      +0.007     -0.022     +0.002
      -0.000     +0.000     -0.005
      -0.000     -0.000     -0.001
vibration  14
      +0.078     -0.130     +0.000
      +0.051     +0.166     +0.000
      -0.106     +0.234     -0.000
      -0.113     -0.433     -0.346
      -0.113     -0.434     +0.346
      -0.026     +0.269     -0.216
      -0.026     +0.269     +0.216
      -0.012     -0.004     -0.000
      -0.011     -0.010     +0.000
vibration  15
      -0.078     -0.281     +0.000
      -0.061     -0.062     +0.000
      +0.081     -0.179     -0.000
      +0.078     +0.241     +0.188
      +0.078     +0.241     -0.188
      +0.079     +0.431     -0.377
      +0.079     +0.432     +0.377
      +0.020     +0.009     -0.000
      +0.006     -0.012     +0.000
vibration  16
      +0.022     +0.013     -0.000
      +0.001     -0.001     -0.000
      +0.002     +0.001     +0.000
      +0.001     +0.000     -0.000
      +0.001     +0.000     +0.000
      +0.002     +0.008     +0.013
      +0.002     +0.008     -0.013
      -0.266     +0.211     -0.000
      +0.690     -0.638     +0.000
vibration  17
      -0.013     -0.240     -0.000
      +0.003     +0.008     +0.000
      -0.026     -0.020     -0.000
      -0.003     +0.010     -0.008
      -0.003     +0.010     +0.008
      +0.034     +0.399     +0.557
      +0.034     +0.399     -0.557
      +0.003     -0.004     +0.000
      -0.012     +0.011     -0.000
vibration  18
      +0.008     -0.015     -0.000
      -0.144     +0.110     +0.000
      +0.492     +0.303     +0.000
      -0.015     -0.326     +0.457
      -0.015     -0.326     -0.457
      +0.003     +0.011     +0.018
      +0.003     +0.011     -0.018
      +0.001     +0.000     -0.000
      -0.001     +0.000     -0.000
vibration  19
      -0.000     -0.000     -0.317
      -0.000     -0.000     +0.020
      -0.000     -0.000     +0.002
      +0.006     +0.020     -0.031
      -0.006     -0.020     -0.031
      +0.028     +0.395     +0.540
      -0.028     -0.395     +0.540
      -0.000     -0.000     +0.000
      +0.000     -0.000     +0.003
vibration  20
      +0.000     +0.004     +0.000
      +0.195     +0.249     +0.000
      -0.654     -0.400     -0.000
      -0.008     -0.227     +0.323
      -0.007     -0.227     -0.323
      +0.001     -0.009     -0.008
      +0.001     -0.009     +0.008
      -0.002     +0.001     -0.000
      +0.001     -0.002     +0.000
vibration  21
      +0.000     -0.000     +0.016
      -0.000     -0.000     +0.316
      +0.000     +0.000     +0.004
      +0.018     +0.391     -0.544
      -0.018     -0.391     -0.544
      +0.003     -0.023     -0.030
      -0.003     +0.023     -0.030
      +0.000     -0.000     -0.000
      -0.000     +0.000     -0.000
