[Molden Format]
[FR-COORD] # Coordinates in bohr
  C    -2.004453    -0.811985    -0.063854 
  C    +0.268149    +1.000204    +0.051120 
  O    +2.653326    -0.278461    -0.175167 
  H    -4.040227    +0.528530    +0.048937 
  H    -2.115943    -1.846020    -1.832417 
  H    -2.101341    -2.089832    +1.540357 
  H    +0.169647    +2.330089    -1.527662 
  H    +0.179175    +2.106302    +1.802561 
  H    +2.691628    -1.429007    +1.303017 
  H    -5.509344    +1.489917    +0.132160 
[FREQ] # Frequencies in cm^-1
 -1996.6999
  109.4134
  252.1827
  280.6877
  448.9725
  518.4013
  694.6158
  893.4777
  944.8298
 1008.4254
 1114.7036
 1124.3616
 1148.4377
 1162.1824
 1273.2786
 1332.3183
 1368.3197
 1385.8068
 1520.1718
 2599.3338
 2632.2554
 2740.3215
 2797.6768
 3076.8818
[FR-NORM-COORD] # Displacements in bohr
vibration  1
      +0.232     -0.143     -0.012
      -0.011     +0.015     +0.002
      +0.002     -0.002     -0.001
      -0.742     +0.486     +0.041
      -0.051     +0.016     -0.026
      -0.051     +0.012     +0.028
      -0.002     +0.001     -0.002
      -0.002     +0.001     +0.002
      +0.002     -0.000     +0.002
      +0.302     -0.197     -0.017
vibration  2
      -0.003     +0.011     -0.210
      +0.001     +0.011     -0.271
      +0.022     -0.058     +0.312
      +0.004     -0.018     +0.271
      -0.172     +0.172     -0.173
      +0.164     -0.151     -0.199
      +0.082     -0.109     -0.211
      -0.082     +0.131     -0.195
      -0.060     +0.120     +0.222
      +0.008     -0.037     +0.579
vibration  3
      +0.113     +0.215     +0.045
      +0.103     +0.217     -0.055
      -0.049     -0.118     +0.098
      -0.104     -0.125     +0.011
      +0.094     +0.035     +0.046
      +0.129     +0.108     +0.041
      +0.114     +0.051     -0.059
      +0.076     +0.132     -0.046
      -0.362     -0.430     -0.257
      -0.335     -0.495     +0.009
vibration  4
      +0.014     -0.204     +0.019
      -0.097     -0.073     -0.100
      +0.122     +0.329     +0.191
      +0.108     +0.059     +0.023
      -0.045     -0.131     +0.039
      +0.005     -0.020     +0.059
      -0.072     -0.082     -0.083
      -0.140     +0.024     -0.077
      -0.307     -0.466     -0.376
      +0.309     +0.367     +0.075
vibration  5
      -0.341     +0.115     +0.004
      +0.101     -0.291     -0.046
      +0.494     +0.243     +0.075
      -0.102     +0.110     +0.006
      -0.331     +0.035     +0.020
      -0.313     +0.082     +0.019
      +0.050     -0.124     -0.024
      +0.009     -0.101     -0.032
      +0.205     -0.078     -0.100
      -0.325     -0.179     +0.004
vibration  6
      -0.002     -0.018     +0.277
      +0.001     -0.006     +0.027
      +0.014     +0.017     +0.006
      +0.001     -0.017     +0.260
      -0.271     +0.404     -0.107
      +0.256     -0.385     -0.169
      -0.079     -0.131     -0.091
      +0.071     +0.139     -0.074
      -0.007     -0.038     -0.032
      -0.009     +0.038     -0.545
vibration  7
      -0.002     +0.003     +0.089
      -0.007     -0.016     +0.251
      -0.036     +0.015     -0.067
      -0.006     +0.013     -0.169
      +0.440     +0.199     -0.107
      -0.419     -0.171     -0.127
      -0.145     -0.361     -0.185
      +0.131     +0.388     -0.136
      +0.123     -0.070     -0.087
      -0.001     -0.008     +0.169
vibration  8
      +0.326     -0.029     +0.019
      -0.002     -0.042     -0.034
      -0.130     +0.009     -0.008
      +0.529     +0.330     +0.007
      -0.266     +0.137     -0.041
      -0.335     +0.088     +0.046
      -0.239     -0.014     +0.007
      -0.078     -0.074     +0.015
      -0.171     +0.066     +0.046
      +0.134     -0.384     -0.021
vibration  9
      +0.104     +0.098     -0.108
      -0.082     -0.090     +0.245
      -0.231     +0.009     -0.053
      +0.118     +0.113     +0.055
      -0.090     -0.022     +0.005
      +0.214     +0.165     +0.055
      +0.383     -0.227     -0.075
      -0.492     +0.151     -0.033
      +0.445     -0.146     -0.157
      +0.019     -0.079     -0.035
vibration  10
      -0.062     -0.288     -0.033
      +0.169     +0.310     +0.111
      -0.091     +0.020     -0.050
      +0.006     -0.251     -0.011
      -0.410     -0.154     +0.020
      -0.368     -0.126     -0.028
      +0.431     +0.164     +0.035
      +0.149     +0.293     -0.030
      +0.009     +0.007     -0.024
      +0.177     -0.044     -0.009
vibration  11
      -0.072     -0.083     +0.049
      +0.039     -0.210     -0.106
      -0.334     +0.298     +0.035
      +0.129     +0.324     +0.149
      +0.250     -0.080     +0.025
      +0.015     -0.140     -0.048
      +0.496     -0.085     -0.070
      +0.380     -0.210     +0.040
      -0.109     +0.091     -0.022
      -0.140     -0.025     -0.033
vibration  12
      -0.007     -0.003     -0.092
      +0.003     -0.069     +0.179
      -0.138     +0.089     +0.073
      +0.023     +0.083     -0.565
      -0.371     -0.055     +0.009
      +0.408     +0.030     +0.005
      -0.162     -0.174     -0.023
      +0.441     +0.091     +0.030
      +0.058     -0.020     -0.023
      +0.004     -0.029     +0.148
vibration  13
      -0.129     -0.178     -0.014
      +0.052     +0.209     +0.069
      +0.166     -0.149     -0.049
      +0.160     +0.530     -0.029
      +0.047     -0.334     +0.117
      +0.130     -0.313     -0.160
      -0.108     +0.182     +0.104
      -0.172     +0.256     -0.070
      -0.002     -0.023     +0.018
      -0.338     +0.048     +0.023
vibration  14
      +0.013     -0.012     +0.421
      +0.001     -0.004     -0.196
      +0.038     -0.003     -0.059
      -0.025     +0.011     -0.578
      +0.001     +0.299     +0.023
      +0.004     -0.255     -0.002
      +0.297     +0.129     +0.000
      -0.347     -0.172     -0.003
      -0.079     +0.040     +0.013
      +0.008     -0.004     +0.162
vibration  15
      +0.196     +0.101     -0.062
      +0.313     +0.025     +0.254
      -0.010     +0.076     -0.189
      -0.142     -0.085     +0.006
      -0.155     -0.184     +0.118
      -0.050     -0.076     -0.132
      -0.005     -0.405     -0.205
      -0.247     -0.144     +0.199
      -0.422     +0.200     +0.070
      -0.195     +0.172     +0.009
vibration  16
      -0.127     -0.371     -0.075
      -0.048     -0.064     +0.205
      +0.195     -0.007     -0.177
      +0.036     +0.085     +0.008
      +0.054     +0.298     -0.325
      +0.147     +0.311     +0.369
      +0.167     -0.035     +0.094
      -0.028     +0.209     -0.049
      -0.351     +0.153     +0.079
      -0.146     +0.060     +0.003
vibration  17
      -0.391     +0.281     -0.010
      -0.164     -0.089     +0.156
      +0.239     -0.013     -0.146
      +0.099     +0.006     +0.004
      +0.098     -0.140     +0.143
      +0.152     -0.075     -0.158
      +0.127     -0.088     +0.037
      -0.030     +0.093     -0.008
      -0.278     +0.119     +0.069
      +0.514     -0.347     -0.032
vibration  18
      +0.200     +0.179     +0.002
      +0.174     -0.541     +0.007
      -0.162     +0.124     -0.027
      -0.098     -0.096     -0.005
      -0.037     -0.046     +0.091
      -0.025     -0.020     -0.096
      -0.025     +0.217     +0.430
      -0.068     +0.322     -0.379
      -0.146     +0.085     +0.006
      -0.058     +0.072     +0.005
vibration  19
      -0.423     -0.112     +0.003
      +0.718     +0.033     -0.057
      -0.273     +0.088     +0.069
      +0.001     +0.023     +0.001
      +0.113     +0.064     -0.103
      +0.102     +0.036     +0.110
      -0.233     +0.013     -0.003
      -0.184     -0.044     -0.008
      +0.068     -0.011     -0.047
      +0.185     -0.134     -0.011
vibration  20
      +0.005     -0.038     +0.001
      +0.025     -0.345     -0.083
      -0.007     +0.007     +0.000
      -0.004     -0.001     -0.000
      +0.015     +0.061     +0.095
      +0.012     +0.079     -0.093
      -0.029     +0.363     -0.415
      -0.032     +0.397     +0.616
      -0.013     +0.014     -0.003
      -0.004     +0.002     +0.000
vibration  21
      -0.054     -0.338     -0.011
      +0.020     +0.079     +0.018
      +0.000     -0.002     +0.001
      +0.010     +0.005     +0.000
      +0.039     +0.321     +0.544
      +0.038     +0.421     -0.523
      +0.008     -0.054     +0.067
      +0.009     -0.064     -0.106
      +0.001     -0.002     -0.001
      -0.022     +0.012     +0.001
vibration  22
      +0.001     +0.005     -0.010
      +0.007     -0.086     +0.438
      +0.005     +0.007     -0.016
      -0.001     -0.000     -0.001
      -0.009     -0.008     -0.004
      +0.011     +0.006     +0.003
      -0.032     +0.454     -0.556
      +0.019     -0.272     -0.457
      -0.021     -0.003     +0.017
      +0.000     -0.000     -0.000
vibration  23
      -0.004     +0.021     -0.445
      +0.000     -0.001     +0.011
      +0.000     -0.000     -0.000
      +0.000     -0.001     +0.010
      +0.033     +0.322     +0.568
      -0.026     -0.374     +0.483
      -0.009     -0.005     -0.002
      +0.009     +0.007     +0.001
      +0.001     +0.000     +0.000
      -0.001     +0.001     -0.002
vibration  24
      +0.000     +0.001     -0.001
      -0.025     +0.011     +0.012
      +0.031     -0.217     +0.260
      -0.000     +0.000     -0.000
      -0.000     -0.001     -0.001
      +0.001     +0.000     +0.001
      -0.004     +0.008     -0.008
      +0.000     -0.006     -0.012
      -0.023     +0.578     -0.741
      +0.000     -0.000     -0.000
