[Molden Format]
[FR-COORD] # Coordinates in bohr
  C    +1.958045    -1.257055    -0.000008 
  C    +0.123397    +0.990031    -0.000005 
  O    -2.415885    +0.022618    +0.000013 
  H    +4.231759    -0.369399    -0.000006 
  H    +1.806547    -2.408471    +1.691372 
  H    +1.806549    -2.408467    -1.691392 
  H    +0.472566    +2.168380    +1.670200 
  H    +0.472547    +2.168369    -1.670221 
  H    -3.481766    +1.562417    +0.000008 
  H    +5.867848    +0.274002    -0.000004 
[FREQ] # Frequencies in cm^-1
 -2664.1173
  117.5302
  252.3891
  269.7243
  470.5299
  651.2582
  963.5138
 1047.0656
 1143.0762
 1287.5609
 1314.2135
 1342.2724
 1426.5599
 1506.7178
 1572.0376
 1573.5119
 1686.2279
 1783.1816
 1838.9965
 3079.6935
 3541.1644
 3624.2197
 3652.3238
 3767.4270
[FR-NORM-COORD] # Displacements in bohr
vibration  1
      -0.191     -0.068     -0.000
      +0.015     +0.011     -0.000
      -0.001     -0.003     +0.000
      +0.864     +0.339     +0.000
      +0.065     +0.009     +0.024
      +0.065     +0.009     -0.024
      +0.001     +0.001     +0.001
      +0.001     +0.001     -0.001
      +0.002     +0.001     -0.000
      -0.274     -0.107     -0.000
vibration  2
      -0.000     +0.000     -0.237
      -0.000     -0.000     -0.365
      +0.000     +0.000     +0.373
      -0.000     -0.000     +0.210
      -0.160     -0.082     -0.138
      +0.160     +0.082     -0.138
      +0.088     +0.093     -0.189
      -0.088     -0.093     -0.189
      -0.000     -0.000     +0.089
      -0.000     -0.000     +0.642
vibration  3
      -0.000     +0.000     -0.126
      -0.000     +0.000     +0.158
      +0.000     -0.000     +0.320
      +0.000     -0.000     -0.021
      +0.010     -0.063     -0.079
      -0.010     +0.063     -0.079
      +0.024     -0.018     +0.056
      -0.024     +0.018     +0.056
      -0.000     -0.000     -0.910
      +0.000     -0.000     -0.022
vibration  4
      -0.041     +0.320     +0.000
      -0.096     +0.276     -0.000
      +0.097     -0.256     -0.000
      +0.077     -0.112     +0.000
      -0.062     +0.090     -0.006
      -0.062     +0.090     +0.006
      -0.080     +0.091     +0.003
      -0.080     +0.091     -0.003
      -0.109     -0.191     +0.000
      +0.316     -0.718     -0.000
vibration  5
      +0.455     +0.092     -0.000
      -0.164     -0.315     +0.000
      -0.507     +0.200     +0.000
      +0.118     +0.090     +0.000
      +0.252     +0.005     -0.003
      +0.252     +0.005     +0.003
      -0.053     -0.081     -0.006
      -0.053     -0.081     +0.006
      +0.033     +0.223     -0.000
      +0.320     -0.200     -0.000
vibration  6
      +0.000     +0.000     -0.259
      -0.000     -0.000     +0.027
      -0.000     +0.000     +0.002
      +0.000     +0.000     -0.331
      +0.377     +0.343     +0.192
      -0.377     -0.343     +0.192
      +0.036     -0.096     +0.068
      -0.036     +0.096     +0.068
      +0.000     +0.000     -0.020
      +0.000     -0.000     +0.446
vibration  7
      +0.000     -0.000     -0.075
      -0.000     -0.000     -0.254
      -0.000     +0.000     +0.108
      -0.000     +0.000     +0.193
      -0.342     +0.278     +0.138
      +0.342     -0.278     +0.138
      +0.065     -0.416     +0.209
      -0.065     +0.416     +0.209
      -0.000     -0.000     -0.022
      +0.000     +0.000     -0.109
vibration  8
      +0.256     -0.384     -0.000
      +0.028     +0.357     -0.000
      -0.166     +0.143     -0.000
      +0.156     -0.164     -0.000
      +0.018     -0.129     -0.007
      +0.018     -0.129     +0.007
      +0.055     +0.096     +0.002
      +0.055     +0.096     -0.002
      -0.598     -0.315     +0.000
      +0.159     +0.138     +0.000
vibration  9
      -0.117     +0.004     +0.000
      -0.042     -0.048     -0.000
      +0.175     +0.161     -0.000
      -0.351     +0.311     -0.000
      +0.415     -0.001     +0.029
      +0.415     -0.001     -0.029
      +0.128     -0.054     +0.001
      +0.128     -0.054     -0.001
      -0.291     -0.198     +0.000
      -0.335     -0.289     -0.000
vibration  10
      +0.168     -0.326     -0.000
      -0.391     +0.302     +0.000
      +0.214     -0.015     -0.000
      -0.032     -0.101     +0.000
      +0.200     -0.127     -0.001
      +0.200     -0.127     +0.001
      -0.341     +0.174     -0.003
      -0.341     +0.174     +0.003
      +0.325     +0.154     -0.000
      -0.164     -0.049     -0.000
vibration  11
      +0.258     +0.089     -0.000
      +0.398     +0.213     +0.000
      -0.423     -0.244     +0.000
      -0.058     -0.258     +0.000
      +0.032     +0.048     +0.005
      +0.032     +0.048     -0.005
      +0.061     +0.085     -0.005
      +0.061     +0.085     +0.005
      +0.083     +0.109     -0.000
      -0.582     -0.165     -0.000
vibration  12
      +0.000     -0.000     +0.235
      +0.000     +0.000     -0.448
      -0.000     -0.000     +0.177
      +0.000     -0.000     -0.150
      +0.201     -0.228     -0.068
      -0.201     +0.228     -0.068
      -0.415     -0.245     +0.123
      +0.415     +0.245     +0.123
      +0.000     +0.000     +0.005
      -0.000     -0.000     +0.046
vibration  13
      -0.325     -0.220     +0.000
      +0.236     +0.350     -0.000
      -0.275     -0.291     +0.000
      -0.130     +0.348     -0.000
      +0.185     -0.060     +0.030
      +0.185     -0.060     -0.030
      +0.137     +0.087     -0.001
      +0.137     +0.087     +0.001
      +0.230     +0.152     -0.000
      +0.400     +0.067     +0.000
vibration  14
      -0.000     -0.000     -0.307
      -0.000     -0.000     +0.162
      +0.000     +0.000     +0.077
      -0.000     +0.000     +0.145
      -0.152     +0.234     +0.050
      +0.152     -0.234     +0.050
      -0.538     +0.236     -0.007
      +0.538     -0.236     -0.007
      -0.000     -0.000     +0.012
      +0.000     -0.000     -0.035
vibration  15
      +0.000     -0.000     +0.126
      +0.000     -0.000     +0.060
      -0.000     +0.000     -0.003
      -0.000     +0.000     -0.822
      -0.371     -0.021     -0.011
      +0.371     +0.021     -0.011
      -0.031     +0.040     -0.002
      +0.031     -0.040     -0.002
      -0.000     -0.000     -0.000
      -0.000     -0.000     +0.152
vibration  16
      +0.330     -0.174     -0.000
      +0.101     -0.003     -0.000
      -0.025     +0.028     +0.000
      -0.206     +0.679     +0.000
      -0.354     -0.026     -0.015
      -0.354     -0.026     +0.015
      -0.140     +0.074     -0.015
      -0.140     +0.074     +0.015
      -0.043     -0.011     +0.000
      -0.095     -0.181     -0.000
vibration  17
      -0.213     -0.068     +0.000
      +0.488     -0.206     -0.000
      -0.030     +0.104     -0.000
      -0.025     -0.063     -0.000
      +0.112     +0.198     +0.155
      +0.112     +0.198     -0.155
      -0.466     +0.110     +0.004
      -0.466     +0.110     -0.004
      -0.167     -0.063     +0.000
      +0.097     +0.047     +0.000
vibration  18
      +0.122     -0.308     -0.000
      -0.225     +0.098     +0.000
      +0.020     -0.027     +0.000
      -0.014     -0.017     +0.000
      -0.043     +0.486     +0.382
      -0.043     +0.486     -0.382
      +0.147     -0.072     +0.025
      +0.147     -0.072     -0.025
      +0.058     +0.021     -0.000
      +0.000     -0.006     -0.000
vibration  19
      -0.021     -0.002     -0.000
      -0.092     -0.291     +0.000
      +0.011     +0.000     -0.000
      +0.011     -0.025     -0.000
      +0.003     +0.036     +0.026
      +0.003     +0.036     -0.026
      +0.161     +0.487     -0.434
      +0.161     +0.487     +0.434
      -0.001     -0.013     +0.000
      +0.008     +0.006     +0.000
vibration  20
      +0.001     -0.001     +0.000
      +0.024     +0.008     -0.000
      -0.215     +0.264     -0.000
      -0.000     +0.000     +0.000
      +0.001     -0.000     -0.001
      +0.001     -0.000     +0.001
      +0.004     +0.007     +0.013
      +0.004     +0.007     -0.013
      +0.538     -0.771     +0.000
      -0.000     -0.000     +0.000
vibration  21
      -0.004     +0.010     -0.000
      -0.062     -0.232     +0.000
      +0.002     -0.005     +0.000
      +0.002     -0.001     +0.000
      -0.003     -0.000     +0.007
      -0.003     -0.000     -0.007
      +0.116     +0.383     +0.557
      +0.116     +0.383     -0.557
      -0.009     +0.013     -0.000
      +0.000     +0.000     -0.000
vibration  22
      -0.021     -0.232     -0.000
      -0.008     +0.006     +0.000
      -0.000     -0.000     +0.000
      -0.002     +0.002     -0.000
      +0.044     +0.380     -0.571
      +0.044     +0.380     +0.571
      +0.000     +0.007     +0.005
      +0.000     +0.007     -0.005
      -0.000     +0.001     -0.000
      +0.010     +0.003     +0.000
vibration  23
      +0.000     -0.000     +0.019
      -0.000     -0.000     -0.316
      -0.000     -0.000     -0.000
      -0.000     +0.000     +0.001
      +0.006     +0.017     -0.029
      -0.006     -0.017     -0.029
      +0.110     +0.380     +0.540
      -0.110     -0.380     +0.540
      +0.000     -0.000     +0.003
      +0.000     +0.000     +0.000
vibration  24
      -0.000     -0.000     +0.322
      +0.000     +0.000     +0.014
      +0.000     -0.000     -0.000
      +0.000     +0.000     -0.001
      +0.049     +0.374     -0.552
      -0.049     -0.374     -0.552
      -0.002     -0.022     -0.027
      +0.002     +0.022     -0.027
      -0.000     +0.000     -0.000
      -0.000     -0.000     +0.000
