[Molden Format]
[FR-COORD] # Coordinates in bohr
  C    +1.834313    -1.205157    -0.000007 
  C    -0.000335    +1.041929    -0.000004 
  O    -2.539617    +0.074516    +0.000014 
  H    +4.108027    -0.317502    -0.000005 
  H    +1.682815    -2.356574    +1.691373 
  H    +1.682817    -2.356569    -1.691391 
  H    +0.348834    +2.220277    +1.670201 
  H    +0.348816    +2.220266    -1.670220 
  H    -3.605498    +1.614315    +0.000009 
  H    +5.744116    +0.325900    -0.000003 
[FREQ] # Frequencies in cm^-1
 -2100.0319
  117.0702
  314.9240
  338.5476
  475.2889
  582.0441
  717.4459
  947.8508
 1007.6260
 1035.5964
 1123.6970
 1138.8998
 1183.7816
 1184.3323
 1302.8308
 1382.4343
 1448.1758
 1700.6492
 1737.1279
 2582.8210
 2639.8251
 2715.1471
 2803.7349
 4227.2831
[FR-NORM-COORD] # Displacements in bohr
vibration  1
      +0.272     +0.099     +0.000
      -0.011     -0.013     +0.000
      +0.003     +0.001     -0.000
      -0.804     -0.314     -0.000
      -0.051     -0.002     -0.027
      -0.051     -0.002     +0.027
      -0.003     -0.000     -0.002
      -0.003     -0.000     +0.002
      -0.001     -0.001     -0.000
      +0.377     +0.147     +0.000
vibration  2
      -0.000     +0.000     -0.152
      -0.000     -0.000     -0.262
      +0.000     +0.000     +0.359
      -0.000     -0.000     +0.375
      -0.254     -0.146     -0.184
      +0.254     +0.146     -0.184
      +0.102     +0.110     -0.206
      -0.102     -0.110     -0.206
      -0.000     -0.000     +0.055
      -0.000     -0.000     +0.515
vibration  3
      +0.107     -0.238     -0.000
      +0.027     -0.293     +0.000
      -0.221     +0.333     +0.000
      -0.122     +0.288     +0.000
      +0.177     -0.101     +0.009
      +0.177     -0.101     -0.009
      +0.090     -0.137     -0.005
      +0.090     -0.137     +0.005
      +0.066     +0.167     +0.000
      -0.231     +0.605     +0.000
vibration  4
      +0.000     -0.000     -0.049
      +0.000     -0.000     +0.105
      -0.000     +0.000     +0.229
      -0.000     +0.000     -0.029
      +0.019     -0.064     -0.062
      -0.019     +0.064     -0.062
      +0.012     +0.013     +0.037
      -0.012     -0.013     +0.037
      -0.000     -0.000     -0.955
      -0.000     +0.000     -0.041
vibration  5
      -0.361     -0.112     -0.000
      +0.164     +0.205     -0.000
      +0.461     -0.213     -0.000
      -0.189     +0.053     +0.000
      -0.292     -0.017     +0.007
      -0.292     -0.017     -0.007
      +0.086     +0.074     +0.005
      +0.086     +0.074     -0.005
      -0.003     -0.137     -0.000
      -0.304     +0.429     +0.000
vibration  6
      -0.000     -0.000     +0.299
      +0.000     +0.000     +0.062
      +0.000     -0.000     -0.041
      -0.000     -0.000     +0.084
      -0.262     -0.356     -0.140
      +0.262     +0.356     -0.140
      -0.080     +0.189     -0.091
      +0.080     -0.189     -0.091
      +0.000     -0.000     +0.057
      -0.000     +0.000     -0.602
vibration  7
      -0.000     -0.000     +0.055
      +0.000     +0.000     +0.221
      +0.000     -0.000     -0.108
      +0.000     -0.000     -0.124
      +0.437     -0.239     -0.101
      -0.437     +0.239     -0.101
      -0.104     +0.359     -0.140
      +0.104     -0.359     -0.140
      +0.000     +0.000     +0.046
      -0.000     +0.000     +0.289
vibration  8
      +0.409     -0.039     -0.000
      +0.033     +0.018     +0.000
      -0.179     +0.016     +0.000
      +0.422     -0.377     -0.000
      -0.337     -0.045     -0.053
      -0.337     -0.045     +0.053
      -0.187     +0.081     -0.009
      -0.187     +0.081     +0.009
      +0.021     +0.053     -0.000
      +0.052     +0.388     +0.000
vibration  9
      +0.003     +0.352     -0.000
      +0.114     -0.376     -0.000
      -0.074     -0.039     +0.000
      +0.037     +0.208     -0.000
      -0.341     +0.264     +0.034
      -0.341     +0.264     -0.034
      +0.211     -0.293     +0.039
      +0.211     -0.293     -0.039
      +0.114     +0.083     -0.000
      +0.091     -0.055     +0.000
vibration  10
      +0.000     -0.000     +0.017
      -0.000     +0.000     -0.343
      +0.000     +0.000     +0.261
      +0.000     -0.000     -0.058
      +0.040     -0.035     -0.015
      -0.040     +0.035     -0.015
      -0.620     -0.118     +0.053
      +0.620     +0.118     +0.053
      -0.000     -0.000     +0.018
      -0.000     +0.000     +0.037
vibration  11
      -0.005     -0.046     -0.000
      -0.034     -0.252     +0.000
      +0.414     +0.202     -0.000
      -0.091     +0.244     -0.000
      -0.080     -0.008     +0.002
      -0.080     -0.008     -0.002
      -0.513     -0.047     +0.055
      -0.513     -0.047     -0.055
      +0.261     +0.148     -0.000
      +0.029     -0.115     +0.000
vibration  12
      -0.000     -0.000     -0.231
      +0.000     +0.000     +0.375
      -0.000     -0.000     -0.030
      -0.000     +0.000     -0.407
      -0.363     +0.223     +0.009
      +0.363     -0.223     +0.009
      -0.183     +0.304     +0.002
      +0.183     -0.304     +0.002
      +0.000     +0.000     +0.010
      -0.000     -0.000     +0.158
vibration  13
      -0.000     +0.000     -0.380
      +0.000     -0.000     +0.193
      +0.000     +0.000     -0.005
      +0.000     -0.000     +0.701
      +0.121     +0.232     -0.011
      -0.121     -0.232     -0.011
      -0.140     +0.174     -0.002
      +0.140     -0.174     -0.002
      +0.000     +0.000     +0.007
      -0.000     +0.000     -0.299
vibration  14
      -0.232     +0.121     +0.000
      -0.004     -0.115     -0.000
      +0.112     +0.038     +0.000
      +0.061     -0.615     -0.000
      +0.234     +0.307     +0.183
      +0.234     +0.307     -0.183
      -0.088     -0.140     +0.071
      -0.088     -0.140     -0.071
      +0.096     +0.053     -0.000
      -0.226     +0.172     +0.000
vibration  15
      +0.073     -0.322     +0.000
      +0.282     -0.121     -0.000
      -0.217     -0.105     +0.000
      -0.117     +0.133     -0.000
      -0.040     +0.299     +0.299
      -0.040     +0.299     -0.299
      -0.046     +0.329     -0.231
      -0.046     +0.329     +0.231
      +0.076     +0.072     -0.000
      -0.031     -0.087     -0.000
vibration  16
      -0.184     +0.379     +0.000
      -0.030     -0.404     +0.000
      +0.056     -0.046     +0.000
      +0.020     -0.149     -0.000
      +0.049     -0.152     -0.227
      +0.049     -0.152     +0.227
      +0.071     +0.261     -0.346
      +0.071     +0.261     +0.346
      +0.245     +0.146     -0.000
      -0.095     +0.024     +0.000
vibration  17
      +0.122     -0.177     -0.000
      -0.667     -0.167     +0.000
      +0.368     +0.214     -0.000
      +0.114     +0.001     +0.000
      -0.056     +0.111     +0.137
      -0.056     +0.111     -0.137
      +0.158     +0.045     -0.188
      +0.158     +0.045     +0.188
      -0.195     -0.169     +0.000
      +0.155     +0.060     +0.000
vibration  18
      -0.110     -0.144     -0.000
      -0.294     +0.277     +0.000
      -0.020     -0.250     +0.000
      +0.083     +0.044     +0.000
      +0.027     -0.011     +0.075
      +0.027     -0.011     -0.075
      +0.115     -0.004     +0.063
      +0.115     -0.004     -0.063
      +0.644     +0.400     -0.000
      +0.311     +0.117     +0.000
vibration  19
      +0.457     +0.011     +0.000
      -0.254     +0.127     +0.000
      +0.018     -0.061     +0.000
      -0.194     -0.053     -0.000
      -0.075     +0.018     -0.032
      -0.075     +0.018     +0.032
      +0.074     -0.018     +0.026
      +0.074     -0.018     -0.026
      +0.210     +0.129     -0.000
      -0.705     -0.284     -0.000
vibration  20
      -0.013     -0.015     -0.000
      -0.093     -0.347     +0.000
      +0.012     +0.015     -0.000
      +0.005     -0.003     +0.000
      -0.000     +0.049     -0.063
      -0.000     +0.049     +0.063
      +0.111     +0.377     +0.524
      +0.111     +0.377     -0.524
      -0.008     -0.015     +0.000
      +0.005     +0.002     -0.000
vibration  21
      -0.026     -0.345     -0.000
      -0.010     +0.065     -0.000
      -0.001     -0.005     +0.000
      -0.004     +0.009     -0.000
      +0.044     +0.373     -0.540
      +0.044     +0.373     +0.540
      -0.014     -0.035     -0.056
      -0.014     -0.035     +0.056
      +0.007     +0.005     -0.000
      +0.043     +0.014     +0.000
vibration  22
      +0.000     -0.000     +0.011
      -0.000     -0.000     -0.442
      -0.000     -0.000     +0.005
      +0.000     -0.000     +0.001
      +0.008     -0.009     +0.001
      -0.008     +0.009     +0.001
      +0.102     +0.352     +0.517
      -0.102     -0.352     +0.517
      +0.000     +0.000     +0.005
      +0.000     -0.000     +0.000
vibration  23
      -0.000     -0.000     +0.446
      +0.000     +0.000     -0.011
      +0.000     -0.000     +0.000
      +0.000     +0.000     -0.010
      +0.049     +0.348     -0.527
      -0.049     -0.348     -0.527
      +0.008     -0.008     +0.000
      -0.008     +0.008     +0.000
      +0.000     +0.000     +0.000
      -0.000     -0.000     +0.003
vibration  24
      +0.000     -0.001     -0.000
      +0.012     +0.012     -0.000
      -0.153     +0.191     -0.000
      -0.001     +0.000     +0.000
      +0.000     -0.000     +0.000
      +0.000     -0.000     -0.000
      +0.001     -0.002     -0.002
      +0.001     -0.002     +0.002
      +0.561     -0.791     +0.000
      +0.000     -0.000     +0.000
