[Molden Format]
[FR-COORD] # Coordinates in bohr
  C    +2.760754    -0.334420    -0.000660 
  C    +0.180433    +1.022080    -0.001257 
  O    -1.766116    -0.875672    +0.002164 
  H    +4.280820    +1.043701    -0.002533 
  H    +2.944483    -1.516504    +1.666090 
  H    +2.943464    -1.519923    -1.665088 
  H    +0.039802    +2.242346    +1.667866 
  H    +0.038239    +2.237824    -1.673537 
  H    -3.479984    +0.184008    +0.000015 
  H    -5.145379    +1.428354    -0.002174 
[FREQ] # Frequencies in cm^-1
 -1788.1247
  120.4568
  226.2954
  275.3806
  447.7848
  636.6374
  954.2628
 1040.4128
 1121.2629
 1271.8882
 1342.3235
 1393.5639
 1484.7760
 1506.3762
 1674.6714
 1735.8763
 1819.5919
 1823.9099
 1849.8759
 3546.8986
 3574.1090
 3659.0683
 3758.7281
 3760.7695
[FR-NORM-COORD] # Displacements in bohr
vibration  1
      -0.001     +0.010     -0.000
      -0.023     -0.033     +0.000
      -0.034     +0.038     -0.000
      +0.006     -0.003     -0.000
      -0.003     +0.000     -0.002
      -0.003     +0.000     +0.002
      +0.006     +0.007     -0.004
      +0.006     +0.007     +0.004
      +0.652     -0.425     +0.001
      -0.506     +0.365     -0.001
vibration  2
      -0.000     -0.000     -0.273
      +0.000     +0.000     +0.280
      +0.000     +0.001     +0.360
      +0.000     -0.000     -0.053
      +0.057     -0.094     -0.152
      -0.057     +0.094     -0.152
      +0.064     -0.059     +0.131
      -0.063     +0.059     +0.131
      +0.000     -0.000     -0.227
      +0.000     -0.001     -0.737
vibration  3
      -0.000     -0.000     +0.021
      -0.000     -0.000     -0.253
      +0.000     +0.000     +0.215
      +0.000     +0.000     +0.558
      -0.269     -0.370     -0.226
      +0.269     +0.370     -0.227
      +0.005     +0.088     -0.137
      -0.005     -0.088     -0.137
      -0.000     +0.000     +0.051
      -0.000     -0.000     +0.029
vibration  4
      -0.078     -0.219     +0.000
      +0.134     +0.211     -0.000
      +0.135     +0.291     -0.001
      +0.061     -0.156     -0.000
      -0.097     -0.076     -0.001
      -0.097     -0.077     +0.001
      +0.074     +0.062     +0.003
      +0.074     +0.062     -0.003
      -0.019     -0.003     -0.000
      -0.508     -0.667     +0.001
vibration  5
      +0.438     +0.098     -0.000
      +0.111     -0.358     +0.000
      -0.491     +0.142     +0.000
      -0.021     +0.195     -0.000
      +0.266     +0.055     +0.004
      +0.266     +0.056     -0.004
      +0.063     -0.091     -0.006
      +0.063     -0.091     +0.006
      -0.079     +0.249     -0.000
      -0.327     -0.102     +0.000
vibration  6
      +0.000     -0.000     -0.016
      +0.000     +0.000     +0.043
      -0.000     +0.000     +0.175
      +0.000     -0.000     -0.014
      +0.019     -0.012     -0.015
      -0.019     +0.012     -0.015
      +0.006     +0.038     -0.013
      -0.005     -0.038     -0.013
      +0.000     -0.002     -0.900
      +0.000     +0.001     +0.390
vibration  7
      +0.000     -0.000     -0.139
      -0.000     -0.000     -0.243
      -0.000     +0.000     +0.110
      +0.000     +0.000     +0.174
      -0.351     +0.233     +0.165
      +0.351     -0.232     +0.165
      +0.243     -0.359     +0.215
      -0.243     +0.360     +0.214
      -0.000     -0.000     -0.046
      +0.000     +0.000     +0.009
vibration  8
      +0.461     -0.080     +0.000
      -0.069     +0.366     -0.000
      -0.245     -0.094     +0.000
      +0.331     -0.232     +0.000
      +0.011     -0.075     -0.017
      +0.011     -0.074     +0.017
      -0.059     +0.106     +0.001
      -0.059     +0.106     -0.002
      -0.389     -0.446     +0.001
      -0.039     +0.131     -0.000
vibration  9
      -0.156     -0.226     +0.000
      -0.042     -0.046     +0.000
      +0.108     +0.319     -0.001
      -0.382     +0.305     -0.000
      +0.257     +0.026     +0.031
      +0.257     +0.026     -0.031
      +0.189     +0.010     +0.002
      +0.189     +0.011     -0.002
      -0.282     -0.521     +0.001
      +0.102     +0.020     -0.000
vibration  10
      +0.250     -0.298     +0.000
      -0.556     +0.051     +0.000
      +0.181     +0.233     -0.000
      -0.005     +0.007     +0.000
      +0.228     -0.076     +0.000
      +0.228     -0.076     +0.000
      -0.329     +0.015     -0.002
      -0.329     +0.015     +0.003
      +0.253     +0.146     -0.000
      +0.131     -0.117     +0.000
vibration  11
      -0.000     -0.001     -0.244
      +0.000     +0.001     +0.445
      +0.000     -0.001     -0.183
      -0.000     +0.000     +0.141
      -0.230     +0.162     +0.070
      +0.230     -0.162     +0.070
      +0.301     +0.393     -0.126
      -0.301     -0.393     -0.125
      -0.000     +0.000     +0.010
      -0.000     +0.000     -0.005
vibration  12
      -0.080     -0.269     +0.001
      +0.080     +0.480     -0.001
      +0.015     -0.477     +0.001
      -0.241     +0.163     -0.000
      +0.240     +0.010     +0.037
      +0.240     +0.010     -0.037
      +0.053     +0.147     +0.001
      +0.054     +0.147     -0.001
      -0.023     +0.329     -0.001
      -0.263     +0.166     -0.000
vibration  13
      -0.009     -0.022     -0.000
      +0.022     +0.221     -0.000
      -0.481     -0.068     +0.000
      -0.005     -0.000     +0.000
      +0.060     +0.002     -0.001
      +0.060     +0.002     +0.001
      +0.211     +0.124     -0.022
      +0.211     +0.124     +0.021
      +0.477     -0.110     +0.000
      +0.465     -0.361     +0.001
vibration  14
      -0.000     -0.000     -0.321
      +0.000     +0.000     +0.174
      +0.000     +0.000     +0.074
      -0.000     +0.000     +0.112
      -0.238     +0.178     +0.053
      +0.238     -0.178     +0.053
      -0.577     +0.016     -0.009
      +0.577     -0.017     -0.009
      -0.000     +0.000     +0.006
      -0.000     +0.000     +0.002
vibration  15
      +0.068     -0.181     +0.000
      +0.506     +0.073     -0.000
      -0.173     +0.053     -0.000
      -0.250     +0.241     -0.000
      -0.156     +0.100     +0.126
      -0.156     +0.100     -0.126
      -0.455     -0.001     -0.032
      -0.455     -0.001     +0.033
      +0.040     -0.134     +0.000
      +0.089     -0.062     +0.000
vibration  16
      +0.440     -0.149     +0.000
      -0.307     +0.009     +0.000
      +0.059     -0.044     +0.000
      -0.241     +0.365     -0.000
      -0.427     +0.029     +0.114
      -0.427     +0.029     -0.114
      +0.212     +0.053     -0.010
      +0.212     +0.053     +0.009
      +0.010     +0.073     -0.000
      -0.027     +0.017     -0.000
vibration  17
      -0.000     -0.000     -0.195
      +0.000     -0.000     -0.046
      -0.000     -0.000     +0.004
      +0.000     +0.001     +0.715
      +0.422     +0.209     +0.051
      -0.422     -0.209     +0.052
      +0.012     -0.020     -0.002
      -0.012     +0.020     -0.002
      +0.000     +0.000     +0.001
      -0.000     +0.000     +0.000
vibration  18
      -0.024     -0.172     +0.000
      -0.086     +0.119     -0.000
      -0.002     +0.010     -0.000
      +0.148     -0.211     +0.000
      +0.034     +0.446     +0.343
      +0.033     +0.445     -0.344
      +0.067     -0.265     +0.220
      +0.067     -0.266     -0.220
      +0.020     +0.000     +0.000
      +0.007     -0.005     +0.000
vibration  19
      +0.048     +0.074     -0.000
      +0.035     +0.295     -0.000
      -0.051     -0.003     +0.000
      -0.116     +0.164     -0.000
      -0.031     -0.256     -0.191
      -0.031     -0.256     +0.192
      +0.001     -0.432     +0.373
      +0.000     -0.433     -0.372
      +0.042     -0.018     +0.000
      +0.022     -0.017     +0.000
vibration  20
      -0.002     -0.008     +0.000
      -0.033     +0.237     -0.000
      -0.002     +0.001     -0.000
      +0.024     +0.026     -0.000
      +0.005     -0.011     +0.011
      +0.005     -0.011     -0.011
      +0.043     -0.398     -0.557
      +0.044     -0.396     +0.558
      +0.008     -0.004     +0.000
      -0.001     +0.000     -0.000
vibration  21
      +0.162     -0.082     +0.000
      -0.010     +0.014     -0.000
      -0.001     -0.000     +0.000
      -0.424     -0.388     +0.001
      -0.047     +0.324     -0.459
      -0.047     +0.324     +0.459
      -0.001     -0.013     -0.021
      -0.001     -0.013     +0.021
      +0.000     -0.000     +0.000
      +0.000     -0.000     +0.000
vibration  22
      -0.000     -0.000     -0.021
      +0.000     +0.000     +0.317
      +0.000     +0.000     -0.000
      +0.000     -0.000     -0.002
      -0.001     -0.022     +0.033
      +0.001     +0.022     +0.033
      +0.047     -0.393     -0.540
      -0.048     +0.391     -0.541
      -0.000     -0.000     -0.002
      +0.000     -0.000     -0.000
vibration  23
      +0.145     +0.281     -0.001
      -0.001     +0.004     -0.000
      -0.002     +0.000     +0.000
      -0.568     -0.519     +0.001
      +0.036     -0.223     +0.323
      +0.035     -0.223     -0.320
      +0.003     -0.009     -0.008
      +0.003     -0.009     +0.008
      +0.000     -0.001     +0.000
      -0.000     +0.000     +0.000
vibration  24
      -0.000     -0.001     -0.316
      -0.000     -0.000     -0.017
      +0.000     -0.000     +0.000
      +0.001     +0.001     -0.004
      +0.057     -0.386     +0.543
      -0.056     +0.388     +0.544
      -0.007     +0.024     +0.032
      +0.007     -0.024     +0.032
      +0.000     +0.000     +0.000
      +0.000     +0.000     +0.000
