[Molden Format]
[FR-COORD] # Coordinates in bohr
  C    +2.570138    -0.380692    -0.000526 
  C    -0.010184    +0.975807    -0.001123 
  O    -1.956733    -0.921945    +0.002298 
  H    +4.090204    +0.997428    -0.002399 
  H    +2.753867    -1.562777    +1.666224 
  H    +2.752848    -1.566195    -1.664954 
  H    -0.150815    +2.196074    +1.668000 
  H    -0.152377    +2.191551    -1.673403 
  H    -3.670600    +0.137736    +0.000149 
  H    -5.335996    +1.382081    -0.002040 
[FREQ] # Frequencies in cm^-1
 -1787.9684
  115.4162
  166.8443
  265.7701
  409.6702
  633.1805
  700.9691
  868.8014
 1004.2314
 1033.5115
 1058.6198
 1156.8090
 1261.0139
 1313.4033
 1315.0944
 1322.8205
 1394.6687
 1477.9172
 1561.1043
 2571.6847
 2591.7681
 2720.4452
 2793.3269
 2794.7208
[FR-NORM-COORD] # Displacements in bohr
vibration  1
      -0.001     +0.009     -0.000
      -0.024     -0.034     +0.000
      -0.034     +0.037     -0.000
      +0.005     -0.002     -0.000
      -0.002     +0.001     -0.002
      -0.002     +0.001     +0.002
      +0.005     +0.007     -0.004
      +0.005     +0.007     +0.004
      +0.652     -0.425     +0.001
      -0.506     +0.365     -0.001
vibration  2
      +0.000     +0.000     +0.196
      -0.000     -0.000     -0.215
      -0.000     -0.001     -0.384
      -0.000     +0.000     +0.065
      -0.066     +0.091     +0.152
      +0.066     -0.091     +0.152
      -0.077     +0.039     -0.125
      +0.077     -0.040     -0.125
      -0.000     +0.000     +0.240
      +0.000     +0.001     +0.767
vibration  3
      +0.000     -0.000     +0.001
      -0.000     -0.000     -0.229
      +0.000     +0.000     +0.254
      +0.000     +0.000     +0.536
      -0.269     -0.350     -0.218
      +0.269     +0.350     -0.218
      +0.016     +0.129     -0.187
      -0.016     -0.129     -0.187
      -0.000     +0.000     +0.068
      -0.000     -0.000     +0.048
vibration  4
      -0.087     -0.154     +0.000
      +0.107     +0.233     -0.000
      +0.173     +0.244     -0.001
      +0.084     -0.196     +0.000
      -0.143     -0.084     -0.002
      -0.143     -0.084     +0.003
      +0.081     +0.096     +0.004
      +0.081     +0.096     -0.004
      -0.015     -0.038     +0.000
      -0.481     -0.670     +0.001
vibration  5
      +0.328     +0.008     -0.000
      +0.089     -0.301     +0.000
      -0.480     +0.198     -0.000
      -0.048     +0.210     -0.000
      +0.320     +0.040     +0.006
      +0.320     +0.040     -0.007
      +0.102     -0.109     -0.005
      +0.102     -0.109     +0.005
      -0.091     +0.238     -0.000
      -0.369     -0.154     +0.000
vibration  6
      +0.000     +0.000     +0.025
      +0.000     +0.000     +0.095
      -0.000     +0.000     +0.141
      +0.000     -0.000     -0.040
      +0.090     -0.056     -0.040
      -0.090     +0.056     -0.040
      -0.035     +0.106     -0.038
      +0.035     -0.106     -0.038
      +0.000     -0.002     -0.877
      +0.000     +0.001     +0.382
vibration  7
      +0.000     +0.000     +0.183
      +0.000     +0.000     +0.220
      +0.000     -0.000     -0.139
      +0.000     -0.000     -0.144
      +0.371     -0.238     -0.133
      -0.371     +0.237     -0.134
      -0.291     +0.304     -0.157
      +0.291     -0.305     -0.156
      +0.000     +0.001     +0.210
      -0.000     -0.000     -0.076
vibration  8
      -0.414     -0.168     +0.000
      +0.052     -0.106     +0.000
      +0.231     +0.129     -0.000
      -0.610     +0.392     -0.000
      +0.065     +0.034     +0.042
      +0.065     +0.034     -0.042
      +0.282     -0.033     +0.010
      +0.282     -0.033     -0.010
      +0.073     -0.035     +0.000
      +0.077     -0.053     +0.000
vibration  9
      -0.092     +0.284     -0.000
      +0.205     -0.316     +0.001
      +0.050     -0.064     -0.000
      +0.046     +0.020     +0.000
      -0.361     +0.127     +0.026
      -0.360     +0.126     -0.026
      -0.004     -0.219     +0.036
      -0.006     -0.220     -0.036
      +0.324     +0.503     -0.001
      -0.056     -0.078     +0.000
vibration  10
      +0.000     -0.001     -0.019
      -0.000     +0.001     +0.337
      +0.000     -0.000     -0.270
      -0.000     +0.000     +0.057
      -0.020     +0.026     +0.016
      +0.021     -0.027     +0.016
      +0.525     +0.353     -0.057
      -0.526     -0.352     -0.055
      -0.000     -0.000     +0.022
      -0.000     +0.000     -0.013
vibration  11
      +0.020     +0.238     -0.000
      +0.147     +0.017     +0.000
      -0.274     -0.225     +0.000
      +0.140     -0.038     +0.000
      -0.212     +0.108     +0.018
      -0.212     +0.108     -0.018
      +0.483     +0.035     +0.006
      +0.482     +0.034     -0.007
      -0.287     -0.319     +0.001
      -0.028     +0.083     -0.000
vibration  12
      +0.000     +0.001     +0.386
      -0.000     -0.001     -0.420
      +0.000     +0.000     +0.032
      +0.000     -0.000     +0.005
      +0.364     -0.200     +0.002
      -0.364     +0.200     +0.001
      +0.331     -0.234     -0.001
      -0.331     +0.234     -0.001
      +0.000     -0.000     -0.012
      +0.000     -0.000     +0.002
vibration  13
      +0.100     +0.032     -0.000
      -0.030     -0.139     +0.000
      +0.138     +0.479     -0.001
      +0.049     +0.015     -0.000
      -0.104     +0.047     +0.037
      -0.104     +0.047     -0.037
      -0.104     -0.399     +0.229
      -0.105     -0.400     -0.228
      -0.254     -0.419     +0.001
      +0.061     +0.019     -0.000
vibration  14
      -0.390     +0.052     -0.000
      -0.236     +0.057     -0.000
      +0.026     -0.006     +0.000
      +0.249     -0.450     +0.001
      +0.322     +0.233     +0.087
      +0.321     +0.232     -0.088
      +0.167     -0.149     +0.148
      +0.167     -0.150     -0.148
      +0.158     +0.105     -0.000
      +0.071     -0.070     +0.000
vibration  15
      -0.000     +0.000     +0.307
      -0.000     +0.000     -0.003
      +0.000     -0.000     -0.007
      -0.000     -0.001     -0.712
      -0.351     -0.271     -0.012
      +0.351     +0.272     -0.013
      +0.046     -0.002     +0.008
      -0.046     +0.002     +0.007
      +0.000     +0.000     -0.001
      +0.000     -0.000     -0.000
vibration  16
      +0.090     -0.367     +0.000
      +0.199     +0.019     -0.000
      -0.014     -0.052     +0.000
      -0.069     -0.044     +0.000
      -0.065     +0.413     +0.428
      -0.065     +0.412     -0.429
      -0.142     +0.090     -0.078
      -0.142     +0.090     +0.078
      -0.104     -0.032     +0.000
      -0.081     +0.067     -0.000
vibration  17
      +0.049     +0.060     -0.000
      -0.219     -0.449     +0.001
      -0.107     +0.349     -0.001
      +0.118     -0.073     +0.000
      -0.051     +0.066     +0.033
      -0.051     +0.065     -0.033
      +0.041     +0.199     -0.290
      +0.041     +0.200     +0.290
      +0.239     -0.218     +0.001
      +0.380     -0.273     +0.000
vibration  18
      -0.381     +0.216     -0.000
      +0.343     -0.361     +0.000
      +0.235     +0.069     -0.000
      +0.062     -0.189     +0.000
      +0.124     +0.012     -0.116
      +0.124     +0.012     +0.116
      -0.123     +0.078     -0.231
      -0.122     +0.079     +0.231
      -0.366     -0.049     +0.000
      -0.268     +0.216     -0.000
vibration  19
      +0.235     -0.062     -0.000
      -0.627     -0.187     +0.000
      +0.432     +0.005     +0.000
      +0.070     +0.036     -0.000
      -0.079     +0.012     +0.063
      -0.079     +0.012     -0.063
      +0.168     +0.045     -0.061
      +0.168     +0.045     +0.060
      -0.213     +0.230     -0.001
      -0.293     +0.216     -0.000
vibration  20
      -0.225     +0.111     -0.000
      +0.010     +0.127     -0.000
      -0.004     -0.005     +0.000
      +0.383     +0.343     -0.000
      +0.054     -0.297     +0.411
      +0.054     -0.298     -0.411
      +0.019     -0.157     -0.208
      +0.019     -0.156     +0.209
      +0.006     -0.002     +0.000
      +0.000     -0.000     +0.000
vibration  21
      +0.115     -0.068     +0.000
      -0.058     +0.339     -0.000
      -0.013     -0.014     +0.000
      -0.170     -0.138     +0.000
      -0.015     +0.118     -0.171
      -0.015     +0.118     +0.171
      +0.040     -0.360     -0.483
      +0.040     -0.358     +0.484
      +0.018     -0.001     +0.000
      +0.001     -0.001     +0.000
vibration  22
      -0.000     -0.000     -0.012
      +0.000     +0.001     +0.443
      +0.000     +0.000     -0.005
      -0.000     -0.000     -0.002
      -0.011     +0.004     +0.001
      +0.011     -0.004     +0.001
      +0.044     -0.364     -0.517
      -0.045     +0.362     -0.518
      -0.000     -0.000     -0.003
      -0.000     +0.000     -0.001
vibration  23
      +0.203     +0.392     -0.002
      -0.004     -0.009     +0.000
      -0.004     +0.003     -0.000
      -0.535     -0.495     +0.001
      +0.026     -0.220     +0.298
      +0.026     -0.219     -0.295
      +0.005     -0.003     +0.001
      +0.005     -0.003     -0.001
      -0.002     -0.002     +0.000
      +0.000     -0.000     +0.000
vibration  24
      -0.001     -0.001     -0.441
      +0.000     +0.000     +0.009
      +0.000     -0.000     -0.000
      +0.001     +0.001     +0.011
      +0.053     -0.358     +0.520
      -0.053     +0.360     +0.521
      -0.010     +0.006     +0.001
      +0.010     -0.006     +0.001
      +0.000     +0.000     -0.000
      -0.000     +0.000     +0.000
