[Molden Format]
[FR-COORD] # Coordinates in bohr
  C    +2.396118    -0.351327    -0.000562 
  C    -0.184203    +1.005172    -0.001159 
  O    -2.130752    -0.892580    +0.002261 
  H    +3.916184    +1.026793    -0.002436 
  H    +2.579848    -1.533412    +1.666187 
  H    +2.578828    -1.536830    -1.664991 
  H    -0.324834    +2.225438    +1.667963 
  H    -0.326396    +2.220916    -1.673440 
  H    -3.844619    +0.167100    +0.000113 
  H    -5.510015    +1.411446    -0.002077 
[FREQ] # Frequencies in cm^-1
 -2524.3034
  147.3107
  167.8679
  329.8565
  453.7017
  695.9203
  871.7814
  893.1319
 1034.3619
 1035.8531
 1134.3705
 1156.9511
 1308.4970
 1315.0960
 1322.9356
 1405.9750
 1475.5078
 1659.9180
 1969.9417
 2571.7511
 2592.2841
 2720.4572
 2793.3404
 2794.7208
[FR-NORM-COORD] # Displacements in bohr
vibration  1
      -0.000     -0.008     +0.000
      +0.020     +0.030     -0.000
      +0.024     -0.030     +0.000
      -0.005     +0.002     +0.000
      +0.002     -0.001     +0.002
      +0.002     -0.001     -0.002
      -0.005     -0.007     +0.002
      -0.005     -0.007     -0.002
      -0.654     +0.428     -0.001
      +0.505     -0.364     +0.001
vibration  2
      -0.000     -0.000     -0.151
      +0.000     +0.000     +0.126
      +0.000     +0.001     +0.350
      +0.000     -0.000     +0.049
      +0.003     -0.138     -0.160
      -0.004     +0.137     -0.160
      +0.059     -0.003     +0.061
      -0.058     +0.003     +0.061
      +0.000     -0.001     -0.292
      -0.000     -0.002     -0.805
vibration  3
      -0.000     -0.000     -0.023
      +0.000     +0.000     +0.249
      -0.000     -0.000     -0.208
      -0.000     -0.001     -0.533
      +0.272     +0.332     +0.196
      -0.272     -0.332     +0.197
      -0.008     -0.130     +0.197
      +0.008     +0.131     +0.197
      +0.000     -0.000     -0.111
      +0.000     -0.000     -0.199
vibration  4
      -0.193     -0.124     +0.000
      +0.039     +0.303     -0.000
      +0.344     +0.086     -0.000
      +0.084     -0.234     +0.000
      -0.233     -0.081     -0.004
      -0.233     -0.081     +0.005
      +0.022     +0.119     +0.006
      +0.022     +0.119     -0.006
      -0.005     -0.131     +0.000
      -0.359     -0.607     +0.001
vibration  5
      +0.271     -0.035     -0.000
      +0.089     -0.206     +0.000
      -0.431     +0.269     -0.000
      -0.033     +0.149     -0.000
      +0.263     +0.015     +0.005
      +0.263     +0.015     -0.006
      +0.118     -0.070     -0.004
      +0.118     -0.070     +0.004
      -0.087     +0.120     -0.000
      -0.471     -0.415     +0.001
vibration  6
      -0.000     -0.000     -0.181
      -0.000     -0.000     -0.239
      +0.000     +0.000     +0.093
      -0.000     +0.000     +0.149
      -0.380     +0.243     +0.139
      +0.380     -0.243     +0.139
      +0.287     -0.323     +0.161
      -0.287     +0.323     +0.160
      -0.000     +0.000     +0.073
      +0.000     -0.000     -0.054
vibration  7
      -0.416     -0.165     +0.000
      +0.060     -0.102     +0.000
      +0.257     +0.106     -0.000
      -0.610     +0.392     -0.000
      +0.059     +0.035     +0.043
      +0.059     +0.035     -0.043
      +0.284     -0.033     +0.010
      +0.284     -0.033     -0.010
      +0.044     -0.029     +0.001
      +0.052     -0.028     -0.000
vibration  8
      +0.000     +0.000     +0.038
      -0.000     -0.000     -0.041
      -0.000     -0.000     -0.109
      +0.000     -0.000     -0.013
      +0.040     -0.028     -0.008
      -0.040     +0.028     -0.008
      -0.079     -0.026     -0.011
      +0.079     +0.026     -0.011
      -0.000     +0.002     +0.903
      -0.000     -0.001     -0.389
vibration  9
      +0.000     -0.001     +0.016
      -0.001     +0.000     -0.333
      +0.000     +0.001     +0.276
      -0.000     -0.000     -0.056
      +0.019     -0.025     -0.016
      -0.017     +0.024     -0.015
      -0.524     -0.350     +0.057
      +0.522     +0.351     +0.056
      -0.000     -0.001     -0.080
      +0.000     +0.000     +0.040
vibration  10
      +0.035     -0.374     +0.000
      -0.266     +0.250     +0.001
      +0.158     +0.127     -0.001
      -0.135     +0.007     +0.000
      +0.420     -0.169     -0.034
      +0.420     -0.169     +0.034
      -0.300     +0.169     -0.040
      -0.303     +0.167     +0.039
      -0.028     -0.103     +0.000
      +0.048     +0.019     -0.000
vibration  11
      +0.009     +0.000     -0.000
      +0.098     -0.297     +0.001
      +0.283     +0.385     -0.001
      -0.076     +0.082     -0.000
      -0.128     +0.015     +0.022
      -0.128     +0.015     -0.022
      -0.413     -0.301     +0.078
      -0.413     -0.301     -0.076
      +0.168     +0.244     -0.001
      -0.028     -0.062     +0.000
vibration  12
      +0.000     +0.001     +0.385
      -0.000     -0.001     -0.421
      +0.000     +0.000     +0.034
      +0.000     +0.000     +0.005
      +0.364     -0.199     +0.002
      -0.364     +0.199     +0.001
      +0.330     -0.235     -0.001
      -0.330     +0.235     -0.001
      +0.000     -0.000     -0.028
      +0.000     -0.000     +0.007
vibration  13
      -0.307     +0.065     -0.000
      -0.249     +0.074     +0.000
      +0.102     +0.122     -0.000
      +0.236     -0.386     +0.000
      +0.266     +0.189     +0.063
      +0.266     +0.189     -0.063
      +0.146     -0.308     +0.267
      +0.146     -0.309     -0.266
      -0.025     -0.079     +0.000
      +0.035     -0.002     +0.000
vibration  14
      -0.000     -0.000     -0.307
      +0.000     -0.000     +0.003
      -0.000     -0.000     +0.006
      +0.000     +0.001     +0.712
      +0.351     +0.271     +0.012
      -0.351     -0.271     +0.013
      -0.046     +0.002     -0.008
      +0.046     -0.002     -0.007
      +0.000     +0.000     +0.002
      -0.000     +0.000     +0.000
vibration  15
      -0.012     +0.342     -0.000
      -0.157     +0.004     +0.000
      +0.054     +0.073     -0.000
      +0.025     +0.123     -0.000
      +0.007     -0.439     -0.427
      +0.007     -0.438     +0.427
      +0.106     -0.133     +0.113
      +0.106     -0.133     -0.112
      -0.010     -0.036     +0.000
      +0.025     -0.007     +0.000
vibration  16
      +0.402     -0.240     +0.000
      -0.047     +0.431     -0.000
      -0.093     -0.048     +0.000
      -0.143     +0.271     -0.000
      -0.175     -0.020     +0.119
      -0.176     -0.020     -0.119
      +0.007     -0.222     +0.327
      +0.007     -0.223     -0.326
      -0.165     -0.229     +0.000
      -0.010     +0.065     -0.000
vibration  17
      -0.311     +0.047     +0.000
      +0.591     +0.356     -0.001
      -0.188     -0.339     +0.001
      -0.105     -0.044     +0.000
      +0.140     -0.041     -0.086
      +0.140     -0.041     +0.086
      -0.148     -0.068     +0.138
      -0.148     -0.068     -0.138
      +0.096     +0.284     -0.001
      -0.144     +0.046     -0.000
vibration  18
      +0.151     -0.094     +0.000
      -0.436     +0.131     -0.000
      +0.091     -0.224     +0.000
      -0.001     +0.051     -0.000
      -0.025     -0.013     +0.050
      -0.025     -0.013     -0.050
      +0.125     +0.035     +0.068
      +0.125     +0.035     -0.068
      +0.420     +0.683     -0.001
      -0.078     -0.050     +0.000
vibration  19
      -0.002     -0.009     +0.000
      +0.069     +0.067     -0.000
      -0.330     +0.104     -0.000
      -0.010     +0.007     -0.000
      +0.004     -0.002     +0.002
      +0.004     -0.002     -0.002
      -0.013     +0.009     +0.042
      -0.013     +0.008     -0.042
      +0.548     -0.200     +0.001
      +0.577     -0.439     +0.001
vibration  20
      -0.226     +0.111     -0.000
      +0.010     +0.124     -0.000
      -0.005     -0.004     +0.000
      +0.384     +0.344     -0.000
      +0.055     -0.298     +0.413
      +0.054     -0.299     -0.412
      +0.019     -0.154     -0.204
      +0.019     -0.153     +0.204
      +0.010     -0.002     +0.000
      +0.003     -0.003     +0.000
vibration  21
      +0.113     -0.068     +0.000
      -0.058     +0.341     -0.000
      -0.016     -0.013     +0.000
      -0.167     -0.135     +0.000
      -0.014     +0.115     -0.167
      -0.014     +0.116     +0.167
      +0.040     -0.361     -0.484
      +0.040     -0.359     +0.485
      +0.030     +0.000     +0.000
      +0.009     -0.008     +0.000
vibration  22
      -0.000     -0.000     -0.012
      +0.000     +0.001     +0.443
      +0.000     +0.000     -0.005
      -0.000     -0.000     -0.002
      -0.011     +0.004     +0.001
      +0.011     -0.004     +0.001
      +0.044     -0.364     -0.517
      -0.045     +0.362     -0.518
      -0.000     -0.000     -0.004
      -0.000     +0.000     -0.001
vibration  23
      +0.203     +0.392     -0.002
      -0.004     -0.009     +0.000
      -0.004     +0.003     -0.000
      -0.535     -0.495     +0.001
      +0.026     -0.220     +0.298
      +0.026     -0.219     -0.295
      +0.005     -0.003     +0.001
      +0.005     -0.003     -0.001
      -0.003     -0.004     +0.000
      +0.001     -0.000     +0.000
vibration  24
      -0.001     -0.001     -0.441
      +0.000     +0.000     +0.009
      +0.000     -0.000     -0.000
      +0.001     +0.001     +0.011
      +0.053     -0.358     +0.520
      -0.053     +0.360     +0.521
      -0.010     +0.006     +0.001
      +0.010     -0.006     +0.001
      +0.000     +0.000     -0.000
      -0.000     +0.000     +0.000
