[Molden Format]
[FR-COORD] # Coordinates in bohr
  C    -2.517642    -0.528051    +0.123130 
  C    +0.006461    +0.744178    -0.580244 
  O    +2.199429    -0.686571    +0.004619 
  H    -4.084438    +0.691462    -0.392448 
  H    -2.727346    -2.316156    -0.865451 
  H    -2.615139    -0.887912    +2.142506 
  H    +0.079079    +1.220649    -2.589906 
  H    +0.077852    +2.848709    +0.554435 
  H    +2.020805    -1.098685    +1.822322 
  H    +0.112670    +4.484400    +1.440347 
[FREQ] # Frequencies in cm^-1
 -2611.8740
  207.7078
  268.4388
  306.0127
  395.4499
  449.8440
 1014.1854
 1052.7698
 1111.9938
 1187.0441
 1311.6301
 1385.7362
 1452.3669
 1522.3810
 1645.0622
 1673.3366
 1729.3547
 1821.9737
 1829.6182
 3081.2815
 3563.1618
 3643.6363
 3742.4027
 3753.2598
[FR-NORM-COORD] # Displacements in bohr
vibration  1
      -0.003     -0.016     -0.012
      -0.009     +0.166     +0.073
      +0.017     -0.027     -0.004
      -0.001     -0.002     +0.000
      -0.004     -0.001     +0.003
      +0.003     +0.002     -0.002
      -0.014     -0.068     -0.011
      -0.020     -0.801     -0.431
      -0.001     +0.007     +0.001
      +0.007     +0.321     +0.173
vibration  2
      -0.011     -0.017     -0.021
      +0.006     -0.058     -0.035
      +0.009     +0.001     +0.116
      +0.021     +0.238     +0.493
      -0.267     +0.251     -0.412
      +0.230     -0.488     -0.081
      +0.009     -0.048     -0.017
      -0.008     +0.009     -0.060
      +0.032     +0.125     +0.072
      -0.037     +0.082     -0.209
vibration  3
      -0.107     -0.043     -0.100
      -0.067     -0.058     -0.038
      -0.083     -0.080     -0.023
      -0.023     -0.017     -0.064
      -0.012     -0.018     -0.023
      -0.063     -0.003     -0.030
      -0.017     -0.014     -0.010
      +0.041     -0.043     +0.037
      +0.390     +0.731     +0.206
      +0.323     -0.192     +0.261
vibration  4
      -0.010     -0.264     -0.061
      -0.152     +0.085     +0.045
      -0.090     +0.251     +0.101
      -0.062     -0.147     -0.002
      +0.095     -0.065     -0.062
      +0.002     -0.133     -0.027
      -0.044     +0.026     +0.013
      +0.077     +0.037     -0.009
      -0.198     -0.177     -0.041
      +0.798     +0.106     -0.143
vibration  5
      -0.012     -0.085     -0.099
      +0.027     +0.180     +0.477
      -0.088     -0.277     -0.190
      -0.009     -0.076     -0.132
      +0.151     -0.007     -0.094
      -0.152     -0.085     -0.047
      -0.004     +0.175     +0.166
      +0.014     +0.079     +0.130
      +0.294     +0.079     +0.005
      -0.081     +0.409     -0.407
vibration  6
      +0.434     -0.079     +0.053
      +0.069     +0.341     -0.208
      -0.470     -0.279     +0.051
      -0.028     -0.181     +0.119
      +0.257     -0.046     +0.030
      +0.293     -0.047     +0.019
      +0.045     +0.087     -0.062
      +0.024     +0.091     -0.016
      -0.236     +0.168     +0.071
      -0.086     +0.045     +0.102
vibration  7
      +0.146     +0.127     +0.104
      -0.040     +0.009     +0.109
      -0.146     +0.051     -0.020
      +0.069     -0.012     -0.158
      +0.315     +0.153     -0.234
      -0.257     -0.204     -0.031
      -0.190     -0.571     -0.114
      +0.081     +0.224     -0.301
      +0.173     -0.133     -0.025
      -0.033     -0.051     +0.155
vibration  8
      -0.473     -0.032     +0.030
      +0.101     +0.290     -0.207
      +0.297     -0.193     +0.079
      -0.399     -0.278     +0.145
      +0.065     -0.057     +0.042
      +0.052     -0.092     +0.008
      +0.136     -0.094     -0.109
      +0.091     +0.241     -0.105
      +0.136     -0.100     +0.035
      -0.025     +0.211     +0.190
vibration  9
      -0.096     -0.096     +0.217
      +0.145     +0.057     -0.045
      +0.283     -0.123     -0.108
      +0.082     +0.035     -0.130
      +0.025     +0.063     -0.117
      -0.366     -0.165     +0.024
      -0.263     +0.081     -0.008
      +0.144     +0.025     +0.042
      -0.610     +0.342     -0.011
      -0.041     +0.075     +0.029
vibration  10
      +0.073     -0.309     -0.039
      +0.106     -0.023     -0.050
      -0.127     +0.007     -0.038
      +0.283     +0.235     -0.039
      -0.414     -0.097     +0.091
      -0.067     +0.128     +0.024
      +0.072     -0.171     -0.060
      -0.087     +0.290     +0.005
      +0.028     -0.011     -0.016
      +0.044     +0.527     +0.328
vibration  11
      +0.182     +0.211     -0.167
      -0.504     -0.157     -0.033
      +0.343     -0.209     +0.082
      -0.016     -0.006     +0.015
      +0.146     +0.034     -0.011
      +0.238     +0.088     -0.042
      -0.417     +0.008     -0.000
      -0.212     +0.087     +0.112
      -0.041     +0.010     +0.058
      +0.047     +0.299     +0.147
vibration  12
      -0.081     +0.190     -0.124
      +0.172     -0.480     +0.232
      -0.129     +0.195     -0.186
      -0.215     -0.139     +0.089
      +0.184     -0.014     +0.045
      +0.232     -0.006     -0.035
      +0.212     -0.236     +0.058
      +0.216     -0.023     +0.152
      -0.264     +0.181     -0.081
      -0.037     +0.275     +0.123
vibration  13
      -0.021     -0.093     -0.279
      +0.011     +0.292     +0.448
      +0.137     -0.086     -0.116
      -0.031     +0.038     +0.144
      -0.213     -0.131     +0.150
      +0.231     +0.190     -0.032
      -0.137     -0.330     +0.035
      -0.036     +0.141     -0.252
      -0.232     +0.130     -0.023
      +0.002     -0.308     -0.095
vibration  14
      +0.003     -0.084     -0.127
      -0.003     +0.001     -0.054
      -0.084     +0.074     +0.121
      +0.012     +0.018     +0.028
      -0.125     -0.066     +0.058
      +0.089     +0.076     -0.017
      -0.456     +0.094     -0.012
      +0.797     -0.036     +0.041
      +0.153     -0.094     +0.032
      -0.140     +0.028     +0.002
vibration  15
      +0.002     +0.047     -0.052
      +0.340     +0.154     -0.099
      -0.096     +0.033     +0.036
      -0.126     -0.111     +0.063
      -0.107     -0.021     +0.068
      -0.073     -0.034     -0.027
      -0.383     -0.368     -0.149
      -0.267     -0.256     +0.564
      +0.068     -0.043     +0.002
      +0.045     +0.016     -0.101
vibration  16
      +0.024     +0.126     -0.076
      +0.404     -0.252     +0.053
      -0.149     +0.061     +0.028
      -0.169     -0.151     +0.068
      -0.091     -0.048     +0.145
      -0.071     -0.133     -0.054
      -0.415     +0.367     +0.107
      -0.280     +0.171     -0.411
      +0.052     -0.028     -0.007
      +0.049     +0.016     +0.088
vibration  17
      -0.434     -0.170     +0.065
      +0.253     +0.004     -0.021
      -0.061     +0.022     +0.019
      +0.250     +0.371     -0.131
      +0.446     -0.026     -0.144
      +0.434     +0.126     +0.077
      -0.203     +0.043     -0.008
      -0.130     +0.004     -0.014
      +0.028     -0.019     -0.002
      +0.022     -0.005     -0.001
vibration  18
      -0.022     +0.080     +0.180
      +0.011     +0.032     +0.043
      +0.002     -0.004     -0.006
      -0.006     -0.277     -0.657
      -0.397     +0.152     -0.108
      +0.457     -0.216     +0.027
      -0.011     -0.022     +0.008
      -0.001     +0.007     -0.006
      -0.010     +0.005     -0.000
      -0.001     -0.015     -0.006
vibration  19
      +0.059     -0.165     +0.078
      +0.085     -0.064     +0.023
      -0.024     +0.015     -0.002
      -0.178     -0.255     +0.104
      -0.098     +0.298     -0.571
      -0.038     +0.625     +0.136
      -0.059     +0.035     +0.020
      -0.038     +0.013     -0.038
      -0.000     +0.004     -0.004
      +0.006     +0.009     +0.011
vibration  20
      -0.000     +0.001     -0.001
      -0.024     +0.014     -0.006
      -0.009     -0.088     +0.328
      +0.001     -0.000     -0.000
      -0.000     +0.001     +0.001
      +0.002     +0.001     -0.001
      -0.004     +0.000     +0.007
      -0.001     +0.003     +0.001
      +0.086     +0.210     -0.912
      -0.000     -0.001     -0.001
vibration  21
      +0.151     +0.087     -0.047
      -0.007     -0.003     -0.001
      -0.001     -0.000     +0.000
      -0.407     +0.321     -0.136
      -0.056     -0.507     -0.284
      -0.025     -0.099     +0.573
      -0.002     -0.004     +0.012
      -0.001     -0.003     -0.001
      +0.001     +0.000     -0.001
      -0.000     +0.001     +0.000
vibration  22
      -0.003     -0.006     +0.017
      +0.012     +0.072     -0.278
      -0.000     -0.001     -0.001
      -0.007     +0.009     -0.002
      -0.001     -0.011     -0.005
      -0.004     +0.004     -0.040
      -0.030     -0.225     +0.929
      +0.002     -0.002     +0.002
      +0.006     -0.006     +0.009
      -0.000     +0.006     +0.003
vibration  23
      +0.008     +0.138     +0.283
      -0.000     -0.002     +0.010
      -0.000     -0.000     -0.000
      +0.008     -0.004     +0.007
      -0.066     -0.588     -0.324
      +0.029     +0.118     -0.655
      +0.005     +0.010     -0.036
      -0.003     -0.004     -0.002
      -0.001     +0.001     -0.001
      -0.000     -0.000     +0.000
vibration  24
      -0.162     +0.245     -0.114
      +0.001     +0.002     -0.006
      +0.002     -0.000     -0.000
      +0.607     -0.475     +0.201
      -0.037     -0.308     -0.176
      -0.018     -0.061     +0.366
      -0.002     -0.007     +0.021
      -0.001     -0.002     +0.000
      +0.001     +0.000     +0.001
      -0.000     +0.000     +0.000
