[Molden Format]
[FR-COORD] # Coordinates in bohr
  C    +2.529262    -0.498979    -0.163469 
  C    -0.002781    +0.711036    +0.608988 
  O    -2.190707    -0.548796    -0.323734 
  H    +2.633536    -0.707112    -2.202097 
  H    +4.090779    +0.677343    +0.458224 
  H    +2.741985    -2.357143    +0.689048 
  H    -0.089813    +1.066651    +2.649688 
  H    -0.092737    +2.905392    -0.401764 
  H    -2.133570    -2.238782    +0.487441 
  H    -0.167206    +4.540425    -1.167926 
[FREQ] # Frequencies in cm^-1
 -2674.3201
  179.6326
  204.9220
  300.9145
  373.3090
  457.3029
 1000.8265
 1046.2209
 1116.1070
 1202.8786
 1289.1886
 1351.0290
 1478.0271
 1503.3040
 1620.3149
 1649.3908
 1726.8263
 1821.4169
 1829.7578
 3055.8716
 3562.3289
 3593.8324
 3738.0321
 3757.6329
[FR-NORM-COORD] # Displacements in bohr
vibration  1
      -0.001     +0.017     -0.009
      +0.004     -0.180     +0.071
      +0.007     +0.019     -0.003
      +0.001     -0.001     -0.002
      +0.001     +0.001     +0.000
      -0.004     +0.001     +0.002
      -0.013     +0.077     -0.009
      -0.039     +0.832     -0.390
      -0.002     -0.001     -0.001
      +0.014     -0.300     +0.141
vibration  2
      +0.077     +0.068     -0.050
      +0.008     -0.072     -0.033
      +0.103     -0.123     -0.209
      +0.087     +0.166     -0.026
      +0.007     -0.031     +0.122
      -0.015     -0.044     -0.144
      -0.017     -0.056     -0.006
      -0.008     -0.003     +0.031
      -0.499     +0.305     +0.689
      -0.037     +0.030     +0.119
vibration  3
      -0.018     +0.002     +0.004
      +0.006     +0.070     -0.034
      -0.026     -0.013     +0.169
      +0.228     +0.462     -0.034
      +0.015     -0.272     +0.465
      -0.261     -0.217     -0.407
      +0.015     +0.065     -0.017
      -0.008     -0.010     -0.079
      +0.147     -0.069     -0.086
      -0.037     -0.091     -0.267
vibration  4
      -0.063     +0.252     -0.072
      -0.170     -0.041     +0.007
      -0.122     -0.236     +0.075
      -0.021     +0.123     -0.026
      -0.064     +0.127     -0.009
      +0.064     +0.065     -0.062
      -0.048     -0.005     +0.000
      +0.101     -0.011     -0.004
      +0.023     -0.074     +0.045
      +0.866     +0.012     -0.024
vibration  5
      -0.156     -0.160     +0.040
      -0.037     +0.307     -0.346
      +0.111     -0.269     +0.065
      +0.029     -0.108     +0.022
      +0.016     -0.153     +0.059
      -0.225     -0.044     +0.063
      -0.008     +0.192     -0.117
      -0.013     +0.125     -0.075
      +0.256     -0.032     +0.142
      +0.044     +0.423     +0.457
vibration  6
      +0.408     +0.033     +0.082
      +0.051     -0.219     -0.410
      -0.486     +0.112     +0.219
      +0.348     -0.013     +0.038
      -0.031     +0.137     +0.163
      +0.182     +0.045     +0.087
      +0.067     +0.007     -0.128
      +0.010     -0.053     -0.082
      -0.120     -0.032     -0.072
      -0.036     +0.082     +0.199
vibration  7
      +0.067     -0.063     +0.120
      +0.024     -0.035     +0.095
      +0.042     -0.025     +0.005
      -0.298     +0.208     -0.007
      +0.064     +0.018     -0.147
      +0.238     -0.110     -0.221
      -0.153     +0.607     -0.089
      +0.085     -0.224     -0.312
      -0.260     -0.093     -0.158
      -0.035     +0.049     +0.169
vibration  8
      -0.488     +0.063     +0.018
      +0.103     -0.277     -0.232
      +0.345     +0.190     +0.105
      +0.064     +0.064     +0.016
      -0.389     +0.249     +0.170
      +0.010     +0.072     +0.073
      +0.150     +0.063     -0.095
      +0.081     -0.209     -0.091
      +0.043     +0.062     +0.001
      -0.015     -0.242     +0.175
vibration  9
      -0.051     +0.218     -0.080
      +0.107     +0.014     +0.009
      +0.180     -0.114     +0.136
      +0.094     -0.162     +0.007
      +0.102     -0.134     +0.053
      -0.367     +0.107     +0.159
      +0.225     +0.042     +0.005
      -0.171     +0.006     -0.030
      -0.618     -0.232     -0.315
      +0.058     +0.087     -0.032
vibration  10
      +0.101     +0.277     +0.029
      +0.063     +0.022     -0.098
      -0.157     +0.033     -0.068
      -0.124     -0.092     +0.018
      +0.301     -0.228     -0.087
      -0.346     +0.057     +0.050
      -0.060     +0.097     -0.056
      +0.005     -0.254     +0.034
      +0.167     +0.067     +0.086
      +0.034     -0.595     +0.302
vibration  11
      +0.158     -0.200     -0.333
      -0.426     +0.181     +0.247
      +0.169     +0.073     -0.008
      +0.451     -0.175     -0.071
      -0.096     +0.027     +0.113
      +0.101     +0.024     +0.079
      -0.070     +0.289     +0.041
      -0.247     -0.125     -0.003
      +0.016     +0.033     -0.009
      +0.065     -0.219     +0.127
vibration  12
      -0.129     -0.028     -0.092
      +0.351     +0.248     +0.291
      -0.369     -0.240     -0.267
      +0.154     -0.007     -0.015
      -0.165     +0.092     +0.103
      +0.033     +0.050     +0.079
      +0.423     +0.244     +0.068
      +0.314     +0.014     +0.039
      +0.023     -0.051     +0.033
      -0.061     -0.087     +0.040
vibration  13
      -0.007     -0.201     +0.163
      +0.009     +0.460     -0.301
      +0.057     -0.096     +0.085
      -0.097     +0.164     +0.021
      -0.067     +0.098     -0.085
      +0.256     -0.103     -0.114
      +0.091     -0.117     -0.040
      -0.144     +0.159     +0.380
      -0.238     -0.107     -0.113
      +0.044     -0.397     +0.095
vibration  14
      -0.000     -0.025     +0.143
      +0.072     -0.105     +0.044
      -0.094     +0.055     -0.148
      -0.138     +0.067     +0.031
      +0.022     +0.000     -0.029
      +0.060     -0.047     -0.056
      +0.496     +0.060     +0.016
      -0.745     -0.084     -0.116
      +0.167     +0.085     +0.078
      +0.138     +0.080     -0.007
vibration  15
      +0.012     -0.011     +0.072
      -0.251     +0.269     +0.035
      +0.054     -0.010     +0.017
      +0.034     +0.023     +0.021
      +0.082     -0.049     -0.080
      +0.106     -0.029     -0.060
      +0.294     -0.481     +0.129
      +0.208     -0.211     -0.608
      -0.049     -0.016     -0.030
      -0.033     -0.057     +0.144
vibration  16
      +0.022     +0.111     +0.120
      -0.480     -0.221     -0.102
      +0.122     +0.049     -0.001
      +0.017     -0.103     +0.049
      +0.185     -0.130     -0.102
      +0.068     -0.050     -0.152
      +0.529     +0.234     -0.056
      +0.323     +0.128     +0.296
      +0.041     +0.039     +0.008
      -0.062     +0.035     -0.077
vibration  17
      -0.438     +0.165     +0.098
      +0.207     -0.024     -0.001
      -0.033     -0.008     -0.001
      +0.480     -0.130     +0.078
      +0.263     -0.336     -0.225
      +0.420     +0.018     -0.172
      -0.157     -0.007     -0.013
      -0.096     -0.008     +0.001
      -0.004     -0.006     +0.004
      +0.017     +0.012     -0.005
vibration  18
      -0.015     +0.112     -0.162
      -0.005     +0.041     -0.041
      +0.004     -0.004     +0.008
      -0.406     -0.243     -0.035
      +0.024     -0.355     +0.616
      +0.444     +0.139     +0.091
      +0.006     -0.026     -0.008
      -0.002     +0.005     +0.000
      -0.013     -0.005     -0.006
      +0.002     -0.018     +0.008
vibration  19
      +0.064     +0.155     +0.093
      +0.076     +0.062     +0.027
      -0.018     -0.013     -0.003
      -0.033     -0.630     +0.089
      -0.182     +0.259     +0.108
      -0.107     -0.257     -0.592
      -0.058     -0.029     +0.015
      -0.029     -0.009     -0.029
      -0.010     -0.010     -0.004
      +0.006     -0.012     +0.010
vibration  20
      -0.000     +0.001     -0.000
      +0.022     +0.007     +0.008
      -0.011     -0.311     +0.135
      +0.001     -0.000     +0.001
      -0.001     +0.000     -0.000
      -0.002     +0.000     +0.000
      +0.000     +0.004     +0.010
      +0.002     +0.007     -0.002
      -0.023     +0.849     -0.404
      +0.000     -0.001     +0.000
vibration  21
      +0.152     -0.092     -0.034
      -0.007     +0.001     -0.007
      -0.001     +0.000     -0.000
      -0.025     +0.051     +0.533
      -0.406     -0.311     -0.163
      -0.062     +0.564     -0.261
      -0.004     +0.009     +0.037
      -0.001     +0.003     -0.001
      +0.001     -0.001     +0.000
      -0.000     -0.001     +0.001
vibration  22
      -0.009     +0.008     +0.014
      +0.017     -0.055     -0.278
      -0.000     +0.004     -0.002
      -0.003     -0.002     -0.044
      +0.009     +0.002     +0.003
      +0.001     -0.009     +0.006
      -0.039     +0.168     +0.942
      +0.001     +0.003     +0.001
      +0.001     -0.006     +0.005
      +0.000     -0.007     +0.003
vibration  23
      +0.083     +0.251     -0.169
      -0.000     +0.000     -0.003
      -0.001     -0.000     -0.000
      -0.018     +0.046     +0.414
      -0.335     -0.251     -0.138
      +0.074     -0.659     +0.304
      -0.003     +0.003     +0.015
      +0.002     -0.004     +0.001
      -0.001     -0.001     +0.000
      +0.000     +0.000     -0.000
vibration  24
      -0.137     -0.126     -0.255
      +0.001     -0.002     -0.007
      +0.001     +0.000     +0.000
      -0.033     +0.065     +0.674
      +0.503     +0.383     +0.200
      -0.001     -0.014     +0.002
      -0.005     +0.007     +0.025
      +0.000     +0.000     +0.001
      +0.000     -0.000     -0.000
      +0.000     -0.000     +0.000
