[Molden Format]
[FR-COORD] # Coordinates in bohr
  C    +2.203890    -0.073635    -0.480941 
  C    -0.379428    -1.069178    +0.417276 
  O    -2.446564    +0.550914    -0.254076 
  H    +2.691418    +2.005687    +0.698979 
  H    +3.744559    -1.342556    -0.005531 
  H    +2.224929    +0.406056    -2.475954 
  H    -0.313827    -1.398339    +2.463867 
  H    -0.755466    -2.894066    -0.484344 
  H    -2.075264    +2.153862    +0.640432 
  H    +3.042814    +3.503163    +1.559597 
[FREQ] # Frequencies in cm^-1
 -1991.2135
  120.4724
  249.1407
  305.7747
  407.9332
  546.9949
  742.5535
  858.5764
  939.3345
 1016.2744
 1081.2076
 1120.2165
 1146.5411
 1157.1305
 1285.1544
 1321.5093
 1359.7344
 1418.2708
 1518.9986
 2592.3525
 2635.2217
 2726.4139
 2801.2041
 3080.4239
[FR-NORM-COORD] # Displacements in bohr
vibration  1
      -0.059     -0.232     -0.128
      -0.003     +0.012     +0.010
      -0.000     +0.001     -0.001
      +0.180     +0.754     +0.431
      +0.036     +0.029     +0.036
      +0.011     +0.060     -0.003
      +0.003     +0.000     +0.002
      +0.000     -0.002     +0.002
      -0.002     -0.000     +0.000
      -0.075     -0.310     -0.177
vibration  2
      +0.054     -0.110     +0.086
      -0.033     -0.129     -0.189
      +0.116     +0.221     +0.194
      -0.192     +0.119     -0.162
      +0.038     +0.078     +0.313
      +0.180     -0.258     -0.014
      -0.036     -0.248     -0.109
      -0.063     +0.045     -0.254
      +0.063     -0.039     +0.269
      -0.370     +0.262     -0.338
vibration  3
      +0.057     +0.050     +0.108
      -0.031     +0.086     -0.039
      -0.125     -0.058     -0.154
      +0.198     +0.041     -0.051
      -0.034     -0.034     +0.089
      +0.079     -0.039     +0.031
      -0.068     -0.002     -0.022
      +0.057     +0.040     -0.056
      -0.467     -0.233     +0.501
      +0.525     +0.057     -0.227
vibration  4
      +0.010     -0.131     -0.180
      +0.062     +0.059     +0.141
      +0.266     +0.153     -0.238
      -0.115     -0.079     -0.005
      +0.034     -0.045     -0.150
      -0.106     -0.022     -0.067
      +0.045     +0.218     +0.086
      -0.037     -0.048     +0.232
      -0.278     -0.168     +0.467
      -0.469     -0.110     +0.204
vibration  5
      -0.248     +0.065     +0.193
      -0.078     -0.282     +0.171
      +0.392     +0.101     -0.214
      -0.040     +0.031     +0.058
      +0.037     +0.069     -0.269
      -0.401     +0.252     +0.131
      -0.170     -0.191     +0.063
      -0.018     -0.070     -0.030
      +0.160     -0.044     +0.057
      +0.122     +0.197     -0.295
vibration  6
      +0.267     -0.168     +0.136
      +0.031     +0.149     -0.042
      -0.192     -0.042     +0.064
      +0.201     -0.163     +0.180
      -0.054     -0.409     -0.301
      +0.085     +0.347     +0.157
      -0.005     +0.030     -0.022
      +0.018     +0.070     -0.036
      -0.109     +0.041     -0.060
      -0.324     +0.251     -0.329
vibration  7
      +0.083     -0.004     +0.061
      +0.104     +0.203     +0.236
      -0.001     -0.039     -0.034
      +0.220     +0.113     -0.169
      +0.005     -0.105     -0.142
      -0.375     -0.378     -0.072
      -0.184     -0.325     +0.040
      +0.213     +0.262     -0.325
      -0.192     +0.094     -0.125
      -0.140     -0.033     +0.164
vibration  8
      -0.361     +0.178     -0.000
      +0.072     +0.074     -0.071
      +0.211     -0.071     -0.008
      +0.070     +0.055     +0.053
      -0.613     -0.413     +0.152
      +0.029     -0.081     -0.034
      +0.200     +0.058     -0.034
      +0.305     -0.024     -0.023
      +0.161     -0.087     +0.063
      -0.043     +0.076     +0.018
vibration  9
      +0.175     +0.093     +0.052
      -0.122     -0.159     -0.183
      -0.210     +0.082     +0.050
      +0.295     +0.152     -0.100
      +0.073     -0.041     -0.151
      -0.072     -0.169     -0.037
      -0.417     +0.254     -0.018
      +0.269     -0.250     +0.150
      +0.378     -0.158     +0.178
      -0.063     +0.142     +0.158
vibration  10
      +0.074     +0.223     -0.109
      -0.178     -0.169     +0.140
      +0.136     -0.094     -0.050
      +0.380     +0.203     -0.121
      -0.123     -0.111     -0.066
      +0.256     -0.014     -0.084
      +0.042     -0.206     +0.048
      -0.577     -0.003     +0.104
      -0.055     -0.006     -0.037
      -0.052     +0.269     +0.222
vibration  11
      +0.069     -0.043     +0.231
      +0.103     -0.031     -0.302
      -0.065     +0.019     -0.008
      -0.084     +0.092     +0.279
      +0.068     -0.063     -0.108
      -0.416     -0.363     +0.017
      +0.417     +0.182     -0.125
      -0.279     -0.028     +0.032
      -0.046     +0.018     -0.011
      +0.106     +0.291     +0.112
vibration  12
      +0.053     +0.008     -0.024
      +0.044     +0.223     -0.121
      +0.301     -0.344     +0.192
      -0.306     +0.083     +0.036
      -0.070     -0.125     -0.054
      -0.017     -0.016     -0.018
      -0.513     +0.327     -0.004
      -0.313     +0.220     -0.152
      +0.042     -0.089     -0.003
      +0.094     +0.006     +0.006
vibration  13
      -0.170     +0.047     -0.025
      -0.003     +0.092     -0.108
      +0.109     -0.146     +0.042
      +0.589     -0.356     +0.161
      +0.056     +0.320     +0.312
      -0.219     -0.002     -0.009
      -0.019     +0.179     -0.032
      -0.159     +0.100     -0.097
      +0.073     -0.074     +0.023
      -0.205     -0.094     -0.152
vibration  14
      -0.006     -0.151     +0.280
      +0.029     +0.034     -0.168
      +0.009     -0.049     +0.011
      +0.091     +0.254     -0.652
      -0.008     -0.070     +0.111
      -0.209     +0.336     +0.235
      +0.192     +0.136     -0.068
      -0.121     +0.020     -0.027
      +0.031     -0.030     +0.009
      -0.058     -0.221     +0.091
vibration  15
      -0.119     -0.023     +0.127
      -0.209     +0.070     +0.234
      -0.100     -0.099     -0.155
      -0.014     +0.008     -0.023
      +0.145     +0.084     -0.321
      +0.288     -0.138     +0.033
      +0.319     +0.215     +0.126
      -0.004     +0.272     -0.381
      +0.359     -0.235     +0.136
      -0.011     -0.041     -0.013
vibration  16
      +0.330     +0.010     -0.200
      +0.043     +0.170     +0.182
      -0.256     -0.038     -0.203
      -0.150     -0.020     +0.075
      -0.079     -0.127     +0.335
      -0.311     +0.162     -0.066
      +0.039     -0.251     +0.037
      -0.156     +0.132     +0.079
      +0.423     -0.256     +0.166
      +0.046     +0.026     -0.008
vibration  17
      +0.026     -0.315     -0.279
      -0.111     -0.234     +0.150
      +0.025     +0.055     +0.032
      +0.035     +0.060     +0.019
      +0.019     -0.004     +0.272
      -0.102     +0.244     -0.048
      +0.033     +0.309     +0.138
      +0.174     +0.051     -0.364
      -0.126     +0.085     -0.046
      +0.105     +0.442     +0.253
vibration  18
      -0.275     -0.398     -0.033
      -0.109     +0.468     -0.134
      +0.117     -0.146     +0.025
      +0.054     +0.028     -0.017
      +0.163     +0.155     -0.066
      +0.097     +0.056     +0.050
      -0.009     -0.292     -0.158
      +0.129     +0.034     +0.283
      +0.101     -0.095     +0.031
      +0.072     +0.355     +0.214
vibration  19
      +0.342     +0.148     -0.019
      -0.750     +0.126     -0.057
      +0.298     -0.134     +0.108
      -0.061     -0.008     +0.030
      +0.060     -0.059     +0.053
      -0.148     -0.013     -0.046
      +0.199     -0.016     -0.053
      +0.202     -0.089     +0.027
      -0.085     +0.013     -0.055
      -0.012     -0.120     -0.076
vibration  20
      -0.022     +0.030     +0.023
      -0.038     -0.296     +0.196
      -0.004     +0.009     -0.003
      +0.006     +0.006     +0.000
      +0.070     -0.067     +0.027
      +0.010     +0.029     -0.103
      -0.022     +0.118     -0.694
      +0.105     +0.527     +0.251
      -0.010     +0.016     -0.003
      -0.002     -0.006     -0.004
vibration  21
      +0.244     -0.097     -0.218
      -0.032     -0.050     +0.047
      -0.003     +0.002     -0.000
      -0.009     -0.004     +0.002
      -0.501     +0.402     -0.149
      -0.012     -0.153     +0.633
      -0.008     +0.016     -0.109
      +0.017     +0.070     +0.031
      -0.002     +0.001     -0.001
      +0.007     +0.021     +0.011
vibration  22
      -0.006     -0.001     -0.006
      +0.061     +0.230     +0.375
      -0.008     -0.011     -0.012
      -0.007     -0.007     -0.000
      +0.009     -0.007     +0.001
      +0.009     +0.005     -0.008
      -0.017     +0.078     -0.567
      -0.127     -0.602     -0.309
      +0.022     +0.005     +0.014
      +0.001     +0.002     +0.001
vibration  23
      +0.199     -0.229     +0.326
      -0.004     +0.006     -0.006
      -0.004     -0.000     +0.000
      -0.005     +0.006     -0.008
      -0.469     +0.392     -0.153
      -0.001     +0.151     -0.618
      +0.010     +0.004     -0.005
      -0.000     -0.003     -0.002
      +0.000     -0.001     +0.001
      +0.001     -0.001     +0.001
vibration  24
      -0.001     -0.001     +0.000
      +0.023     -0.012     +0.015
      +0.045     +0.301     +0.152
      -0.001     -0.001     -0.000
      +0.000     -0.001     +0.000
      +0.001     +0.000     -0.001
      -0.000     +0.001     -0.013
      +0.001     -0.011     -0.004
      -0.183     -0.806     -0.448
      +0.000     +0.000     +0.000
