[Molden Format]
[FR-COORD] # Coordinates in bohr
  C    +2.279485    +0.642418    -0.167415 
  C    -0.071776    -0.958796    +0.504116 
  O    -2.381697    +0.021541    -0.536764 
  H    +3.975478    -0.280272    +0.526634 
  H    +2.437467    +0.862203    -2.201034 
  H    +2.162187    +2.506819    +0.681936 
  H    +0.145379    -2.854122    -0.294142 
  H    -0.205134    -1.167482    +2.561162 
  H    -2.659889    +1.768107    +0.430730 
  H    -2.845335    +3.521352    +1.531907 
[FREQ] # Frequencies in cm^-1
 -2538.2017
  148.3657
  203.3544
  371.5164
  443.7532
  688.2101
  870.8901
  896.9006
 1012.1489
 1046.2024
 1118.0684
 1154.0872
 1306.1626
 1318.9594
 1325.2867
 1394.4350
 1510.6038
 1632.9980
 1962.3871
 2570.7197
 2601.9375
 2737.3237
 2789.0222
 2793.0202
[FR-NORM-COORD] # Displacements in bohr
vibration  1
      +0.001     +0.001     -0.003
      +0.031     -0.001     +0.016
      -0.006     -0.032     -0.025
      -0.002     -0.004     -0.000
      +0.000     -0.000     -0.001
      -0.003     -0.003     +0.001
      -0.014     -0.001     -0.008
      -0.010     -0.002     -0.003
      -0.114     +0.667     +0.394
      +0.067     -0.524     -0.324
vibration  2
      -0.044     +0.059     +0.062
      +0.004     -0.012     +0.061
      -0.029     -0.160     +0.015
      +0.033     -0.170     -0.358
      -0.268     +0.384     +0.044
      +0.166     -0.126     +0.379
      +0.028     -0.005     +0.033
      -0.001     +0.003     +0.027
      +0.097     +0.088     -0.196
      +0.216     +0.269     -0.466
vibration  3
      -0.064     +0.075     +0.059
      +0.027     -0.153     -0.180
      -0.109     -0.012     +0.267
      -0.041     +0.214     +0.304
      +0.193     -0.137     +0.023
      -0.253     +0.098     -0.154
      +0.011     +0.012     -0.253
      +0.073     -0.250     -0.087
      +0.173     +0.113     -0.079
      +0.415     +0.290     -0.329
vibration  4
      -0.269     +0.039     -0.009
      -0.032     -0.169     +0.170
      +0.287     +0.096     -0.248
      +0.013     +0.178     -0.097
      -0.272     +0.011     -0.017
      -0.236     +0.019     -0.030
      -0.000     -0.107     +0.165
      -0.103     +0.042     +0.075
      +0.147     +0.003     -0.006
      +0.593     -0.139     +0.304
vibration  5
      +0.185     +0.073     +0.020
      -0.056     +0.260     -0.135
      -0.399     -0.303     -0.031
      -0.066     -0.165     +0.104
      +0.261     +0.057     +0.025
      +0.234     +0.017     +0.058
      +0.059     +0.066     +0.071
      -0.010     +0.226     -0.044
      -0.062     -0.064     -0.030
      +0.533     -0.161     +0.247
vibration  6
      -0.020     +0.096     +0.150
      -0.040     +0.157     +0.214
      +0.014     -0.072     -0.086
      -0.015     -0.106     -0.117
      -0.306     -0.335     -0.001
      +0.374     +0.200     -0.236
      +0.228     +0.261     -0.305
      -0.177     -0.394     +0.034
      -0.077     -0.032     -0.030
      +0.084     -0.024     -0.001
vibration  7
      -0.433     +0.037     -0.089
      +0.072     +0.111     -0.039
      +0.267     -0.019     +0.057
      -0.529     -0.418     +0.193
      +0.057     -0.034     -0.019
      +0.014     -0.027     +0.070
      +0.224     +0.083     -0.035
      +0.295     +0.074     +0.001
      +0.159     +0.084     -0.122
      -0.057     -0.061     +0.042
vibration  8
      +0.096     +0.007     +0.020
      -0.034     -0.004     +0.044
      -0.119     -0.078     +0.071
      +0.114     +0.097     -0.039
      -0.000     +0.010     +0.004
      +0.022     +0.017     -0.018
      -0.118     +0.015     -0.049
      -0.008     -0.072     +0.018
      +0.428     +0.420     -0.640
      -0.182     -0.216     +0.255
vibration  9
      +0.013     -0.035     -0.077
      -0.071     +0.218     +0.261
      +0.170     -0.146     -0.116
      +0.000     +0.035     +0.046
      +0.071     +0.086     -0.017
      -0.083     -0.053     +0.041
      -0.628     +0.175     -0.236
      +0.405     -0.176     +0.122
      -0.246     -0.082     -0.089
      +0.104     -0.062     -0.023
vibration  10
      +0.050     -0.328     +0.192
      +0.200     +0.292     -0.131
      -0.154     +0.006     -0.032
      +0.165     +0.056     -0.007
      -0.387     -0.230     +0.055
      -0.392     -0.198     +0.117
      +0.224     +0.199     -0.150
      +0.255     +0.230     -0.051
      -0.076     +0.025     -0.058
      +0.020     -0.006     +0.023
vibration  11
      +0.002     -0.006     +0.002
      +0.019     +0.212     -0.216
      +0.376     -0.237     +0.296
      -0.044     -0.065     +0.017
      -0.100     -0.040     -0.010
      -0.109     -0.019     +0.015
      -0.308     +0.105     -0.202
      -0.594     +0.257     -0.126
      +0.067     -0.057     +0.014
      -0.004     -0.046     -0.027
vibration  12
      +0.034     -0.196     -0.322
      -0.061     +0.173     +0.323
      +0.002     +0.013     +0.007
      +0.020     +0.012     -0.022
      +0.338     +0.226     -0.095
      -0.315     -0.223     +0.088
      +0.381     +0.227     -0.076
      -0.331     -0.237     +0.103
      -0.063     +0.020     -0.047
      +0.017     +0.001     +0.017
vibration  13
      -0.311     -0.086     +0.070
      -0.200     -0.173     +0.077
      +0.080     -0.015     +0.016
      +0.161     +0.300     -0.260
      +0.349     -0.124     +0.065
      +0.256     -0.041     +0.084
      +0.124     +0.132     -0.402
      +0.096     +0.436     +0.098
      +0.054     -0.023     +0.038
      -0.007     -0.018     -0.020
vibration  14
      -0.000     -0.151     -0.266
      -0.030     -0.027     +0.023
      +0.005     -0.001     +0.003
      -0.042     +0.386     +0.590
      -0.345     +0.158     -0.125
      +0.416     -0.176     +0.170
      +0.059     +0.027     -0.069
      -0.036     +0.045     +0.013
      +0.017     -0.004     +0.014
      -0.004     -0.002     -0.004
vibration  15
      -0.048     +0.282     -0.164
      +0.122     +0.052     -0.014
      -0.041     +0.013     -0.016
      -0.020     +0.127     -0.083
      +0.112     -0.599     -0.145
      +0.025     -0.173     +0.596
      -0.092     -0.058     +0.147
      -0.074     -0.168     -0.034
      -0.027     +0.010     -0.012
      +0.003     +0.014     +0.012
vibration  16
      +0.315     +0.271     -0.126
      +0.135     -0.390     +0.289
      -0.187     +0.060     -0.115
      -0.136     -0.276     +0.125
      -0.132     -0.056     -0.110
      -0.188     +0.051     +0.081
      -0.041     +0.017     -0.402
      -0.079     +0.326     +0.191
      +0.021     +0.024     +0.028
      -0.013     +0.059     +0.032
vibration  17
      -0.345     -0.164     +0.053
      +0.751     -0.009     +0.095
      -0.235     +0.061     -0.093
      -0.078     +0.068     -0.039
      +0.122     +0.101     +0.079
      +0.145     -0.015     -0.104
      -0.197     -0.030     -0.047
      -0.217     +0.001     +0.003
      -0.148     +0.077     -0.062
      +0.005     +0.097     +0.074
vibration  18
      +0.025     +0.043     -0.000
      -0.070     -0.195     -0.104
      +0.167     +0.135     +0.214
      -0.009     -0.013     +0.011
      -0.018     -0.012     -0.008
      +0.019     +0.024     +0.003
      +0.140     -0.130     -0.004
      -0.033     +0.075     -0.035
      -0.744     +0.128     -0.471
      +0.093     -0.062     +0.025
vibration  19
      -0.011     -0.004     -0.003
      +0.111     -0.019     +0.030
      -0.120     +0.305     +0.120
      -0.012     -0.006     +0.000
      +0.004     +0.003     +0.001
      -0.003     -0.002     -0.001
      -0.013     -0.000     -0.005
      -0.026     -0.004     +0.027
      +0.143     -0.515     -0.215
      +0.063     -0.613     -0.389
vibration  20
      +0.220     +0.147     -0.058
      -0.028     +0.045     -0.038
      +0.000     -0.003     +0.000
      -0.450     +0.240     -0.181
      -0.049     -0.062     +0.531
      +0.025     -0.500     -0.224
      +0.013     -0.121     -0.047
      -0.011     -0.019     +0.153
      +0.003     +0.000     +0.003
      -0.001     +0.001     +0.001
vibration  21
      -0.061     -0.051     +0.023
      +0.001     +0.289     -0.214
      +0.007     -0.012     +0.002
      +0.102     -0.045     +0.035
      +0.003     +0.007     -0.109
      -0.010     +0.100     +0.049
      +0.065     -0.538     -0.217
      -0.043     -0.075     +0.691
      +0.013     +0.002     +0.015
      -0.000     +0.002     +0.002
vibration  22
      +0.000     +0.007     +0.011
      +0.047     -0.255     -0.363
      +0.007     +0.002     +0.009
      -0.003     +0.002     +0.000
      -0.009     -0.005     -0.002
      +0.011     +0.005     -0.004
      -0.073     +0.626     +0.275
      -0.040     -0.044     +0.568
      -0.029     +0.017     -0.007
      +0.000     +0.005     +0.004
vibration  23
      -0.221     +0.369     +0.096
      +0.004     -0.008     -0.003
      +0.003     +0.002     +0.001
      +0.464     -0.261     +0.186
      +0.015     +0.004     -0.132
      +0.048     -0.622     -0.284
      -0.010     -0.007     +0.003
      +0.002     +0.001     -0.002
      +0.001     -0.002     -0.002
      -0.001     -0.000     -0.000
vibration  24
      +0.135     -0.028     +0.419
      -0.003     +0.002     -0.007
      -0.003     -0.001     +0.000
      -0.383     +0.210     -0.167
      +0.049     +0.075     -0.720
      +0.012     -0.218     -0.112
      -0.003     -0.006     -0.001
      +0.011     +0.007     -0.007
      +0.000     -0.000     +0.001
      -0.000     -0.000     -0.000
