[Molden Format]
[FR-COORD] # Coordinates in bohr
  C    +2.373702    -0.516468    -0.137478 
  C    -0.180266    +0.679992    +0.550517 
  O    -2.190005    -0.874411    -0.317696 
  H    +3.908178    +0.721218    +0.430962 
  H    +2.601013    -2.323546    +0.811496 
  H    +2.491388    -0.827473    -2.162085 
  H    -0.306320    +1.097193    +2.577735 
  H    -0.281158    +2.817495    -0.516602 
  H    -3.741338    -0.001194    +0.260313 
  H    -0.348395    +4.486132    -1.339732 
[FREQ] # Frequencies in cm^-1
 -1985.8178
  143.1863
  265.9815
  295.7335
  359.3493
  396.5784
  754.3903
  881.9343
  967.6897
 1010.8646
 1075.4558
 1100.7824
 1194.2200
 1261.1886
 1312.3270
 1314.8144
 1319.6820
 1447.8913
 1546.4236
 2570.5558
 2648.5863
 2784.6232
 2793.4103
 3085.0233
[FR-NORM-COORD] # Displacements in bohr
vibration  1
      -0.000     -0.011     +0.010
      +0.001     +0.223     -0.090
      -0.012     -0.028     +0.001
      +0.002     -0.004     -0.001
      -0.003     +0.000     +0.001
      -0.001     +0.000     +0.003
      +0.018     -0.060     +0.005
      +0.029     -0.772     +0.384
      +0.002     +0.004     -0.003
      -0.014     +0.394     -0.195
vibration  2
      +0.004     +0.019     -0.013
      +0.009     +0.061     -0.065
      +0.003     -0.073     +0.200
      +0.019     -0.237     +0.478
      -0.254     -0.231     -0.399
      +0.238     +0.471     -0.063
      +0.025     +0.107     -0.042
      -0.021     -0.024     -0.127
      +0.003     +0.009     +0.024
      -0.051     -0.086     -0.244
vibration  3
      +0.037     -0.061     -0.034
      +0.083     -0.031     +0.088
      +0.054     -0.032     +0.180
      +0.042     -0.043     -0.048
      +0.017     -0.027     -0.017
      -0.034     -0.032     -0.016
      +0.059     -0.009     +0.041
      -0.089     -0.015     +0.043
      +0.006     +0.473     -0.699
      -0.447     -0.031     +0.057
vibration  4
      +0.040     -0.199     +0.086
      +0.128     +0.112     -0.094
      +0.116     +0.220     -0.192
      +0.088     -0.179     +0.051
      -0.144     -0.069     +0.102
      +0.057     -0.165     +0.051
      +0.042     +0.036     -0.038
      -0.117     +0.059     -0.014
      +0.062     -0.162     +0.346
      -0.723     +0.072     +0.063
vibration  5
      -0.158     -0.057     -0.028
      -0.053     +0.264     -0.248
      +0.238     -0.318     +0.181
      +0.028     -0.148     +0.003
      -0.269     -0.019     +0.046
      -0.039     -0.106     +0.003
      -0.015     +0.240     -0.128
      -0.018     +0.146     -0.074
      -0.000     -0.127     -0.145
      +0.157     +0.404     +0.458
vibration  6
      -0.279     -0.001     -0.018
      -0.025     +0.204     +0.380
      +0.460     -0.005     -0.152
      +0.066     -0.157     -0.164
      -0.192     -0.056     -0.097
      -0.408     +0.035     -0.030
      -0.081     -0.003     +0.171
      -0.004     +0.057     +0.092
      +0.028     -0.208     -0.113
      +0.038     -0.149     -0.314
vibration  7
      +0.075     -0.124     +0.179
      +0.014     -0.080     +0.087
      -0.033     +0.039     -0.076
      +0.049     +0.020     -0.125
      +0.371     -0.168     -0.223
      -0.321     +0.221     +0.011
      -0.303     +0.496     -0.096
      +0.165     -0.223     -0.246
      +0.006     +0.000     +0.041
      -0.093     +0.039     +0.203
vibration  8
      -0.414     -0.153     -0.049
      +0.084     -0.112     -0.035
      +0.289     +0.133     +0.008
      -0.591     +0.334     +0.191
      +0.064     +0.005     +0.046
      +0.029     +0.056     -0.022
      +0.300     +0.079     -0.030
      +0.178     -0.126     -0.081
      +0.077     -0.012     -0.007
      -0.067     -0.064     +0.087
vibration  9
      +0.071     -0.329     -0.060
      -0.157     +0.236     +0.108
      -0.043     +0.043     +0.072
      -0.122     +0.039     +0.006
      +0.454     -0.144     -0.112
      +0.265     -0.060     -0.032
      +0.010     +0.021     +0.083
      +0.046     +0.309     +0.135
      -0.281     -0.317     -0.187
      -0.039     +0.258     -0.214
vibration  10
      +0.075     +0.077     -0.133
      -0.054     -0.006     +0.279
      -0.111     +0.091     -0.151
      +0.112     -0.087     +0.006
      -0.095     +0.069     +0.042
      +0.207     -0.113     -0.028
      +0.430     +0.449     +0.060
      -0.240     -0.263     -0.045
      -0.236     -0.248     -0.148
      +0.083     -0.236     +0.183
vibration  11
      +0.025     +0.136     +0.189
      +0.129     +0.020     -0.063
      -0.279     -0.169     -0.073
      +0.110     -0.015     -0.018
      -0.087     +0.026     +0.035
      -0.296     +0.149     +0.060
      +0.480     -0.093     +0.013
      +0.558     +0.107     -0.040
      -0.202     -0.171     -0.097
      -0.152     +0.092     -0.052
vibration  12
      +0.000     +0.094     -0.259
      -0.040     +0.012     +0.094
      +0.013     +0.029     +0.098
      +0.003     -0.003     -0.023
      -0.208     +0.111     +0.056
      +0.310     -0.139     -0.077
      -0.437     +0.100     -0.004
      +0.630     -0.080     +0.127
      -0.087     -0.104     -0.046
      -0.151     -0.225     +0.092
vibration  13
      -0.007     -0.034     +0.030
      +0.092     -0.034     -0.128
      -0.093     -0.198     -0.113
      -0.062     +0.050     +0.023
      +0.002     -0.030     -0.014
      -0.071     +0.010     +0.006
      +0.062     +0.458     -0.162
      -0.020     +0.263     +0.705
      +0.133     +0.153     +0.094
      +0.011     -0.179     -0.098
vibration  14
      -0.063     +0.047     -0.162
      +0.034     -0.138     +0.441
      -0.116     -0.274     -0.228
      -0.047     -0.017     +0.053
      -0.063     +0.069     +0.023
      +0.165     -0.116     -0.045
      +0.039     +0.206     +0.166
      +0.099     +0.101     -0.201
      +0.242     +0.277     +0.160
      -0.037     +0.474     -0.195
vibration  15
      -0.084     -0.139     +0.262
      -0.025     +0.030     +0.018
      -0.003     -0.041     -0.032
      +0.016     +0.226     -0.664
      -0.273     -0.188     -0.063
      +0.422     +0.311     +0.091
      +0.072     -0.010     +0.021
      -0.006     +0.003     -0.012
      +0.046     +0.048     +0.027
      -0.000     -0.010     +0.008
vibration  16
      -0.388     -0.023     -0.031
      -0.142     +0.123     -0.058
      +0.045     -0.081     -0.043
      +0.199     -0.461     -0.063
      +0.436     +0.225     +0.283
      +0.203     +0.300     -0.035
      +0.113     -0.040     -0.001
      +0.095     -0.029     +0.009
      +0.137     +0.129     +0.076
      -0.015     -0.139     +0.070
vibration  17
      +0.203     -0.292     -0.193
      +0.183     -0.101     +0.064
      -0.056     +0.050     +0.028
      -0.081     +0.040     +0.017
      -0.184     +0.164     +0.548
      -0.136     +0.505     -0.204
      -0.160     +0.063     -0.005
      -0.122     +0.036     +0.012
      -0.123     -0.114     -0.065
      +0.021     +0.122     -0.065
vibration  18
      -0.158     +0.193     +0.074
      -0.130     -0.662     -0.105
      +0.205     +0.304     +0.158
      +0.161     -0.152     -0.092
      -0.016     +0.078     -0.022
      +0.060     +0.006     +0.064
      +0.021     +0.129     -0.155
      +0.006     +0.063     +0.117
      -0.092     -0.151     -0.093
      -0.016     +0.316     -0.188
vibration  19
      +0.374     -0.145     -0.062
      -0.764     -0.011     -0.026
      +0.204     +0.052     +0.011
      +0.047     +0.093     +0.043
      -0.092     -0.057     +0.093
      -0.129     +0.057     -0.083
      +0.226     +0.028     +0.030
      +0.168     -0.003     +0.013
      +0.191     +0.141     +0.077
      -0.035     -0.025     +0.009
vibration  20
      -0.245     +0.121     +0.059
      +0.028     -0.005     +0.025
      +0.000     -0.001     -0.000
      +0.413     +0.325     +0.148
      +0.069     -0.501     +0.260
      +0.039     -0.085     -0.533
      +0.006     -0.018     -0.077
      +0.001     -0.005     -0.000
      -0.001     -0.001     -0.001
      +0.000     +0.004     -0.002
vibration  21
      +0.035     -0.019     -0.019
      -0.035     +0.099     +0.396
      -0.001     -0.017     -0.011
      -0.041     -0.023     -0.011
      -0.008     +0.035     -0.018
      +0.010     +0.000     +0.037
      +0.056     -0.184     -0.887
      -0.001     -0.005     -0.011
      -0.013     +0.017     +0.007
      -0.000     +0.014     -0.004
vibration  22
      -0.101     -0.345     +0.251
      +0.002     +0.006     -0.003
      +0.001     -0.001     -0.001
      +0.289     +0.241     +0.101
      -0.074     +0.633     -0.336
      +0.022     -0.046     -0.365
      +0.006     -0.003     -0.006
      -0.007     +0.007     -0.000
      +0.003     +0.000     +0.000
      +0.000     -0.002     +0.001
vibration  23
      +0.185     +0.199     +0.347
      -0.004     -0.005     -0.009
      -0.002     +0.002     +0.001
      -0.464     -0.378     -0.180
      -0.005     +0.004     -0.013
      +0.029     -0.100     -0.635
      +0.009     -0.004     +0.000
      -0.000     +0.000     -0.000
      -0.005     -0.000     -0.000
      -0.000     -0.000     -0.000
vibration  24
      -0.003     -0.001     -0.000
      -0.018     -0.020     -0.017
      +0.296     -0.138     -0.094
      +0.003     +0.002     +0.001
      -0.001     +0.001     -0.000
      -0.001     +0.000     +0.001
      -0.003     +0.004     +0.015
      -0.001     -0.003     +0.002
      -0.782     +0.434     +0.289
      -0.000     +0.002     -0.001
