[Molden Format]
[FR-COORD] # Coordinates in bohr
  C    +2.546256    -0.486012    -0.114066 
  C    -0.007712    +0.710448    +0.573929 
  O    -2.017450    -0.843956    -0.294283 
  H    +4.080732    +0.751673    +0.454374 
  H    +2.773568    -2.293091    +0.834908 
  H    +2.663943    -0.797017    -2.138673 
  H    -0.133766    +1.127649    +2.601147 
  H    -0.108604    +2.847950    -0.493190 
  H    -3.568783    +0.029261    +0.283726 
  H    -0.175841    +4.516588    -1.316319 
[FREQ] # Frequencies in cm^-1
 -2611.7383
  194.9189
  267.8033
  305.7442
  384.4190
  436.7121
 1021.2256
 1031.5837
 1127.6164
 1202.4903
 1322.4076
 1388.5157
 1451.3732
 1501.8292
 1657.7682
 1682.0177
 1735.2506
 1816.3448
 1827.4691
 3084.7498
 3569.1084
 3591.7262
 3748.5755
 3759.0432
[FR-NORM-COORD] # Displacements in bohr
vibration  1
      -0.002     +0.015     -0.009
      -0.004     -0.170     +0.062
      +0.015     +0.029     +0.001
      -0.000     +0.002     +0.000
      -0.002     +0.001     +0.002
      +0.002     -0.001     -0.002
      -0.020     +0.073     -0.014
      -0.031     +0.813     -0.406
      -0.003     -0.004     +0.001
      +0.012     -0.327     +0.162
vibration  2
      -0.005     -0.020     +0.014
      -0.010     -0.048     +0.044
      -0.003     +0.050     -0.156
      -0.018     +0.243     -0.491
      +0.251     +0.243     +0.417
      -0.237     -0.490     +0.065
      -0.014     -0.052     +0.020
      +0.011     +0.013     +0.069
      -0.003     -0.032     +0.016
      +0.051     +0.087     +0.226
vibration  3
      -0.038     +0.066     +0.056
      -0.085     +0.047     -0.089
      -0.043     +0.041     -0.195
      -0.027     +0.018     +0.062
      -0.028     +0.010     +0.002
      +0.035     +0.041     +0.015
      -0.046     +0.013     -0.029
      +0.058     +0.013     -0.036
      -0.005     -0.481     +0.702
      +0.429     +0.024     -0.083
vibration  4
      -0.054     +0.249     -0.124
      -0.144     -0.068     +0.062
      -0.080     -0.268     +0.205
      -0.060     +0.132     -0.047
      +0.087     +0.064     -0.078
      -0.044     +0.122     -0.045
      -0.029     -0.012     +0.018
      +0.071     -0.021     +0.013
      -0.063     +0.119     -0.340
      +0.755     -0.007     +0.013
vibration  5
      -0.145     -0.144     +0.026
      -0.034     +0.302     -0.370
      +0.187     -0.261     +0.190
      +0.021     -0.142     +0.054
      -0.223     -0.037     +0.060
      +0.028     -0.105     +0.021
      -0.003     +0.209     -0.131
      -0.016     +0.111     -0.104
      +0.002     -0.114     -0.076
      +0.046     +0.438     +0.450
vibration  6
      +0.390     +0.074     +0.091
      +0.046     -0.254     -0.390
      -0.494     +0.009     +0.111
      -0.036     +0.154     +0.149
      +0.186     +0.059     +0.081
      +0.330     +0.008     +0.041
      +0.044     -0.009     -0.125
      +0.010     -0.063     -0.078
      -0.018     +0.223     +0.141
      -0.034     +0.086     +0.226
vibration  7
      +0.433     -0.168     +0.038
      -0.076     +0.179     +0.224
      -0.250     -0.014     -0.039
      +0.246     -0.104     -0.173
      +0.266     -0.142     -0.192
      -0.151     +0.092     -0.032
      -0.182     +0.317     +0.004
      +0.057     +0.006     -0.126
      -0.300     -0.275     -0.146
      -0.032     +0.165     -0.018
vibration  8
      -0.227     -0.002     +0.172
      +0.063     -0.198     -0.056
      +0.146     +0.029     -0.060
      -0.123     +0.124     -0.080
      +0.215     -0.080     -0.175
      -0.319     +0.241     -0.001
      -0.198     +0.407     -0.134
      +0.138     -0.284     -0.264
      +0.235     +0.213     +0.146
      -0.044     -0.096     +0.203
vibration  9
      -0.167     -0.228     -0.102
      -0.041     -0.059     -0.016
      +0.179     +0.305     +0.141
      -0.397     +0.282     +0.153
      +0.286     +0.005     +0.025
      +0.265     +0.044     -0.028
      +0.199     +0.098     -0.014
      +0.113     -0.074     -0.048
      -0.288     -0.371     -0.217
      -0.038     -0.038     +0.045
vibration  10
      +0.062     +0.209     -0.077
      +0.068     +0.087     -0.014
      -0.069     +0.089     -0.022
      +0.178     -0.149     +0.003
      -0.305     +0.079     +0.088
      +0.036     -0.123     +0.007
      +0.128     +0.242     -0.048
      -0.030     -0.333     -0.019
      -0.168     -0.166     -0.090
      +0.039     -0.605     +0.352
vibration  11
      +0.207     -0.175     -0.183
      -0.532     +0.064     -0.006
      +0.284     +0.162     +0.104
      +0.025     -0.028     +0.010
      +0.107     -0.023     -0.001
      +0.250     -0.107     -0.041
      -0.440     +0.010     -0.011
      -0.312     -0.079     +0.053
      +0.186     +0.140     +0.080
      +0.069     -0.167     +0.080
vibration  12
      -0.039     -0.013     -0.249
      +0.022     -0.049     +0.476
      -0.087     -0.166     -0.229
      -0.097     +0.005     +0.142
      -0.075     +0.092     +0.129
      +0.301     -0.146     -0.034
      +0.215     +0.441     +0.064
      -0.178     -0.085     -0.220
      +0.139     +0.158     +0.089
      +0.030     +0.242     -0.054
vibration  13
      -0.064     -0.226     -0.015
      +0.098     +0.578     +0.018
      -0.172     -0.323     -0.148
      -0.169     +0.120     +0.006
      +0.268     -0.038     -0.018
      +0.131     +0.088     -0.021
      +0.040     +0.031     +0.038
      +0.154     +0.126     +0.281
      +0.119     +0.162     +0.101
      -0.017     -0.343     +0.109
vibration  14
      -0.018     +0.098     -0.221
      +0.036     -0.059     +0.117
      -0.018     -0.038     +0.056
      -0.020     -0.021     +0.082
      -0.174     +0.103     +0.111
      +0.178     -0.127     -0.033
      -0.502     +0.009     -0.003
      +0.732     +0.013     +0.002
      -0.013     -0.014     +0.004
      -0.133     +0.041     -0.021
vibration  15
      +0.048     -0.075     -0.088
      +0.435     -0.119     -0.037
      -0.074     +0.023     +0.028
      -0.197     +0.167     +0.119
      -0.181     +0.036     +0.127
      -0.142     +0.067     -0.048
      -0.426     +0.275     -0.112
      -0.374     +0.141     +0.397
      -0.099     -0.079     -0.042
      +0.062     +0.002     -0.072
vibration  16
      +0.031     -0.107     -0.069
      +0.277     +0.262     +0.112
      -0.075     -0.023     +0.005
      -0.136     +0.111     +0.063
      -0.068     +0.043     +0.134
      -0.060     +0.122     -0.046
      -0.269     -0.459     +0.126
      -0.200     -0.229     -0.575
      -0.056     -0.022     -0.013
      +0.035     +0.000     +0.105
vibration  17
      -0.439     +0.161     +0.070
      +0.316     -0.037     -0.011
      -0.042     +0.019     +0.024
      +0.242     -0.332     -0.157
      +0.399     +0.032     -0.135
      +0.427     -0.107     +0.077
      -0.236     -0.029     -0.024
      -0.183     -0.013     -0.005
      -0.069     -0.055     -0.030
      +0.030     +0.016     -0.006
vibration  18
      -0.003     -0.094     +0.173
      +0.012     -0.035     +0.041
      -0.001     +0.003     -0.004
      -0.017     +0.311     -0.644
      -0.418     -0.153     -0.102
      +0.424     +0.237     +0.030
      -0.015     +0.023     +0.007
      +0.001     -0.004     -0.003
      -0.002     -0.001     -0.002
      -0.001     +0.016     -0.007
vibration  19
      +0.059     +0.157     +0.081
      +0.084     +0.071     +0.031
      -0.021     -0.017     -0.007
      -0.192     +0.259     +0.104
      -0.090     -0.286     -0.576
      -0.026     -0.625     +0.120
      -0.059     -0.041     +0.020
      -0.037     -0.015     -0.045
      -0.008     +0.000     +0.001
      +0.006     -0.009     +0.012
vibration  20
      -0.001     +0.001     +0.000
      -0.019     -0.017     -0.006
      +0.296     -0.138     -0.094
      -0.001     -0.001     -0.000
      -0.001     -0.000     +0.000
      -0.001     +0.000     -0.000
      -0.002     -0.003     -0.016
      -0.001     -0.003     +0.002
      -0.782     +0.434     +0.289
      -0.000     +0.002     -0.001
vibration  21
      +0.157     -0.081     -0.034
      -0.007     -0.001     -0.016
      -0.001     -0.000     -0.000
      -0.415     -0.339     -0.155
      -0.062     +0.522     -0.276
      -0.029     +0.081     +0.540
      -0.006     +0.015     +0.065
      -0.001     +0.003     -0.001
      -0.001     +0.000     +0.000
      -0.000     -0.001     +0.001
vibration  22
      -0.014     +0.011     +0.015
      +0.022     -0.063     -0.277
      +0.005     +0.001     -0.001
      +0.022     +0.014     +0.008
      +0.004     -0.025     +0.015
      -0.002     -0.006     -0.059
      -0.058     +0.197     +0.933
      +0.002     +0.002     +0.000
      -0.011     +0.004     +0.006
      +0.000     -0.006     +0.003
vibration  23
      +0.077     +0.250     -0.176
      -0.000     +0.000     -0.003
      -0.001     +0.000     +0.000
      -0.321     -0.258     -0.123
      +0.081     -0.663     +0.350
      -0.019     +0.061     +0.378
      -0.003     +0.002     +0.013
      +0.003     -0.004     +0.001
      +0.000     -0.001     -0.000
      +0.000     +0.000     -0.000
vibration  24
      -0.131     -0.138     -0.252
      +0.001     -0.002     -0.006
      +0.002     -0.000     -0.000
      +0.487     +0.396     +0.180
      +0.000     -0.022     +0.007
      -0.038     +0.101     +0.679
      -0.005     +0.007     +0.024
      +0.001     +0.000     +0.001
      -0.001     +0.001     +0.001
      +0.000     -0.000     +0.000
