[Molden Format]
[FR-COORD] # Coordinates in bohr
  C    +1.794530    -1.241250    -0.000007 
  C    -0.040119    +1.005836    -0.000004 
  O    -2.579400    +0.038423    +0.000013 
  H    +4.068244    -0.353595    -0.000005 
  H    +1.643031    -2.392667    +1.691373 
  H    +1.643033    -2.392662    -1.691391 
  H    +0.309051    +2.184184    +1.670201 
  H    +0.309032    +2.184174    -1.670221 
  H    -3.645281    +1.578222    +0.000009 
  H    +5.704333    +0.289807    -0.000003 
[FREQ] # Frequencies in cm^-1
 -1995.0810
  105.1526
  249.6322
  260.4753
  436.7143
  515.8091
  705.3732
  898.2100
  975.2682
 1035.0978
 1047.9802
 1127.4163
 1137.4136
 1164.2824
 1265.1811
 1314.1944
 1363.4534
 1421.8374
 1547.8048
 2582.5437
 2638.7038
 2715.1283
 2803.7295
 3080.0403
[FR-NORM-COORD] # Displacements in bohr
vibration  1
      +0.255     +0.093     +0.000
      -0.012     -0.013     +0.000
      +0.003     +0.001     -0.000
      -0.827     -0.323     -0.000
      -0.053     -0.003     -0.028
      -0.053     -0.003     +0.028
      -0.003     -0.000     -0.002
      -0.003     -0.000     +0.002
      -0.001     -0.001     -0.000
      +0.337     +0.132     +0.000
vibration  2
      +0.000     -0.000     +0.199
      +0.000     +0.000     +0.294
      -0.000     -0.000     -0.377
      +0.000     +0.000     -0.271
      +0.203     +0.112     +0.175
      -0.203     -0.112     +0.175
      -0.114     -0.115     +0.225
      +0.114     +0.115     +0.225
      -0.000     +0.000     -0.100
      +0.000     +0.000     -0.571
vibration  3
      +0.000     -0.000     +0.078
      +0.000     -0.000     -0.131
      -0.000     +0.000     -0.319
      -0.000     +0.000     +0.025
      -0.015     +0.070     +0.079
      +0.015     -0.070     +0.079
      -0.034     +0.003     -0.053
      +0.034     -0.003     -0.053
      +0.000     +0.000     +0.918
      -0.000     +0.000     +0.033
vibration  4
      +0.030     -0.292     -0.000
      +0.076     -0.255     +0.000
      -0.117     +0.271     +0.000
      -0.112     +0.168     -0.000
      +0.088     -0.118     +0.008
      +0.088     -0.118     -0.008
      +0.106     -0.122     -0.003
      +0.106     -0.122     +0.003
      +0.099     +0.194     -0.000
      -0.306     +0.692     +0.000
vibration  5
      -0.356     -0.072     -0.000
      +0.174     +0.269     -0.000
      +0.491     -0.229     -0.000
      -0.127     -0.086     -0.000
      -0.323     -0.002     +0.003
      -0.323     -0.002     -0.003
      +0.075     +0.103     +0.005
      +0.075     +0.103     -0.005
      -0.020     -0.220     +0.000
      -0.296     +0.267     +0.000
vibration  6
      -0.000     -0.000     +0.278
      +0.000     +0.000     +0.020
      +0.000     -0.000     -0.018
      -0.000     -0.000     +0.260
      -0.350     -0.325     -0.136
      +0.350     +0.325     -0.136
      -0.058     +0.131     -0.072
      +0.058     -0.131     -0.072
      +0.000     -0.000     +0.034
      -0.000     +0.000     -0.556
vibration  7
      -0.000     -0.000     +0.111
      +0.000     +0.000     +0.229
      +0.000     -0.000     -0.111
      +0.000     -0.000     -0.162
      +0.385     -0.295     -0.121
      -0.385     +0.295     -0.121
      -0.119     +0.385     -0.152
      +0.119     -0.385     -0.152
      +0.000     +0.000     +0.033
      -0.000     +0.000     +0.158
vibration  8
      +0.326     -0.029     -0.000
      +0.007     +0.018     +0.000
      -0.182     -0.008     +0.000
      +0.454     -0.429     -0.000
      -0.334     -0.036     -0.046
      -0.334     -0.036     +0.046
      -0.169     +0.067     -0.006
      -0.169     +0.067     +0.006
      +0.035     +0.072     -0.000
      +0.215     +0.347     +0.000
vibration  9
      -0.079     +0.312     -0.000
      +0.065     -0.386     +0.000
      +0.067     -0.098     +0.000
      -0.035     +0.260     +0.000
      -0.302     +0.232     +0.031
      -0.302     +0.232     -0.031
      -0.007     -0.227     +0.033
      -0.007     -0.227     -0.033
      +0.438     +0.249     -0.000
      +0.063     -0.060     -0.000
vibration  10
      -0.000     -0.000     -0.025
      -0.000     +0.000     +0.341
      +0.000     -0.000     -0.261
      -0.000     -0.000     +0.084
      -0.025     +0.037     +0.015
      +0.025     -0.037     +0.015
      +0.620     +0.118     -0.054
      -0.620     -0.118     -0.054
      +0.000     +0.000     -0.012
      -0.000     -0.000     -0.031
vibration  11
      -0.040     -0.117     +0.000
      -0.078     +0.002     -0.000
      +0.286     +0.020     +0.000
      -0.087     -0.096     -0.000
      +0.160     -0.074     +0.001
      +0.160     -0.074     -0.001
      -0.500     +0.150     -0.002
      -0.500     +0.150     +0.002
      +0.431     +0.224     -0.000
      -0.184     -0.055     +0.000
vibration  12
      +0.000     -0.000     +0.065
      -0.000     -0.000     -0.283
      +0.000     +0.000     +0.032
      +0.000     +0.000     +0.644
      +0.405     -0.118     -0.012
      -0.405     +0.118     -0.012
      +0.103     -0.218     -0.003
      -0.103     +0.218     -0.003
      -0.000     -0.000     -0.004
      +0.000     +0.000     -0.169
vibration  13
      +0.106     -0.222     +0.000
      -0.050     +0.051     +0.000
      +0.103     +0.087     -0.000
      -0.063     +0.655     -0.000
      -0.218     -0.284     -0.130
      -0.218     -0.284     +0.130
      -0.112     +0.091     -0.022
      -0.112     +0.091     +0.022
      -0.076     -0.053     +0.000
      +0.373     -0.042     +0.000
vibration  14
      +0.000     -0.000     -0.447
      +0.000     +0.000     +0.315
      -0.000     -0.000     -0.012
      -0.000     +0.000     +0.511
      -0.003     +0.302     -0.006
      +0.003     -0.302     -0.006
      -0.207     +0.274     -0.001
      +0.207     -0.274     -0.001
      -0.000     -0.000     +0.007
      +0.000     -0.000     -0.146
vibration  15
      +0.087     -0.034     +0.000
      +0.222     +0.053     -0.000
      -0.395     -0.341     +0.000
      -0.092     +0.101     -0.000
      -0.028     -0.031     -0.016
      -0.028     -0.031     +0.016
      +0.178     +0.379     -0.258
      +0.178     +0.379     +0.258
      +0.296     +0.207     -0.000
      -0.147     -0.088     -0.000
vibration  16
      -0.194     +0.411     +0.000
      -0.203     +0.085     +0.000
      +0.043     -0.111     +0.000
      +0.084     -0.141     -0.000
      +0.086     -0.368     -0.368
      +0.086     -0.368     +0.368
      +0.159     -0.097     +0.042
      +0.159     -0.097     -0.042
      +0.235     +0.109     -0.000
      +0.039     +0.065     +0.000
vibration  17
      +0.463     +0.192     +0.000
      +0.223     +0.007     -0.000
      -0.092     +0.071     +0.000
      -0.116     +0.049     -0.000
      -0.144     -0.104     -0.173
      -0.144     -0.104     +0.173
      -0.108     -0.100     +0.116
      -0.108     -0.100     -0.116
      -0.184     -0.071     +0.000
      -0.611     -0.255     -0.000
vibration  18
      -0.077     -0.173     +0.000
      +0.324     +0.516     -0.000
      -0.298     -0.240     +0.000
      -0.042     +0.082     +0.000
      +0.050     -0.008     +0.065
      +0.050     -0.008     -0.065
      -0.061     -0.198     +0.369
      -0.061     -0.198     -0.369
      +0.168     +0.138     -0.000
      +0.131     +0.033     +0.000
vibration  19
      +0.378     -0.233     -0.000
      -0.664     +0.296     +0.000
      +0.135     -0.063     -0.000
      -0.002     +0.035     +0.000
      -0.082     +0.055     +0.112
      -0.082     +0.055     -0.112
      +0.208     -0.066     +0.053
      +0.208     -0.066     -0.053
      +0.242     +0.095     -0.000
      -0.176     -0.083     -0.000
vibration  20
      +0.012     +0.015     +0.000
      +0.093     +0.346     -0.000
      -0.008     -0.019     +0.000
      -0.005     +0.003     -0.000
      +0.000     -0.050     +0.063
      +0.000     -0.050     -0.063
      -0.112     -0.377     -0.524
      -0.112     -0.377     +0.524
      -0.006     +0.023     -0.000
      -0.003     -0.001     +0.000
vibration  21
      -0.021     -0.344     -0.000
      -0.010     +0.065     -0.000
      -0.001     -0.004     +0.000
      -0.009     +0.007     -0.000
      +0.044     +0.373     -0.541
      +0.044     +0.373     +0.541
      -0.014     -0.036     -0.056
      -0.014     -0.036     +0.056
      +0.003     +0.004     -0.000
      +0.025     +0.008     +0.000
vibration  22
      +0.000     -0.000     +0.011
      -0.000     -0.000     -0.442
      +0.000     -0.000     +0.005
      +0.000     -0.000     +0.001
      +0.008     -0.009     +0.001
      -0.008     +0.009     +0.001
      +0.102     +0.352     +0.517
      -0.102     -0.352     +0.517
      +0.000     +0.000     +0.004
      +0.000     -0.000     +0.000
vibration  23
      -0.000     -0.000     +0.446
      +0.000     +0.000     -0.011
      -0.000     -0.000     +0.000
      +0.000     +0.000     -0.010
      +0.049     +0.348     -0.527
      -0.049     -0.348     -0.527
      +0.008     -0.008     +0.000
      -0.008     +0.008     +0.000
      +0.000     -0.000     +0.000
      -0.000     -0.000     +0.002
vibration  24
      +0.002     -0.001     -0.000
      +0.027     +0.019     -0.000
      -0.215     +0.264     -0.000
      -0.000     +0.000     +0.000
      +0.000     -0.001     +0.000
      +0.000     -0.001     -0.000
      -0.001     -0.007     -0.009
      -0.001     -0.007     +0.009
      +0.538     -0.770     +0.000
      -0.000     -0.000     +0.000
