[Molden Format]
[FR-COORD] # Coordinates in bohr
  C    +2.294682    -0.429813    -0.158334 
  C    -0.259285    +0.766648    +0.529661 
  O    -2.269024    -0.787756    -0.338551 
  H    +3.829158    +0.807873    +0.410106 
  H    +2.521994    -2.236891    +0.790640 
  H    +2.412369    -0.740818    -2.182941 
  H    -0.385339    +1.183848    +2.556879 
  H    -0.360178    +2.904150    -0.537458 
  H    -3.820357    +0.085461    +0.239458 
  H    -0.427414    +4.572787    -1.360588 
[FREQ] # Frequencies in cm^-1
 -2142.8091
  146.2150
  363.8831
  372.0655
  403.4068
  448.9387
  773.9500
  887.7463
 1024.0879
 1055.4680
 1112.8067
 1142.5358
 1233.9353
 1312.2775
 1317.5203
 1357.8052
 1471.7945
 1627.0010
 1707.2348
 2570.5848
 2649.1488
 2784.6355
 2793.4313
 4234.2334
[FR-NORM-COORD] # Displacements in bohr
vibration  1
      +0.000     -0.011     +0.009
      -0.000     +0.238     -0.099
      -0.012     -0.025     +0.001
      +0.002     -0.004     -0.001
      -0.003     +0.000     +0.000
      -0.000     +0.000     +0.002
      +0.017     -0.056     +0.004
      +0.028     -0.741     +0.368
      +0.002     +0.004     -0.003
      -0.016     +0.443     -0.219
vibration  2
      -0.002     -0.015     +0.013
      -0.005     -0.076     +0.105
      -0.002     +0.100     -0.223
      -0.018     +0.236     -0.475
      +0.261     +0.226     +0.385
      -0.244     -0.454     +0.060
      -0.025     -0.142     +0.064
      +0.024     +0.031     +0.169
      -0.002     -0.006     -0.012
      +0.037     +0.068     +0.208
vibration  3
      -0.061     -0.121     -0.006
      +0.086     +0.142     +0.058
      +0.263     -0.015     +0.033
      +0.096     -0.179     -0.052
      -0.170     -0.057     +0.021
      -0.104     -0.109     +0.002
      +0.032     +0.051     +0.029
      -0.222     +0.072     +0.053
      +0.022     +0.247     -0.489
      -0.637     +0.053     +0.103
vibration  4
      -0.094     -0.103     +0.045
      +0.022     +0.211     -0.092
      +0.230     +0.045     -0.175
      +0.065     -0.173     +0.019
      -0.236     -0.039     +0.074
      -0.035     -0.126     +0.032
      -0.003     +0.068     -0.038
      -0.107     +0.115     +0.005
      +0.042     -0.459     +0.620
      -0.262     +0.126     +0.109
vibration  5
      +0.298     -0.050     +0.047
      +0.110     -0.236     -0.117
      -0.401     +0.299     -0.036
      -0.011     +0.103     +0.120
      +0.218     +0.017     +0.071
      +0.313     -0.033     +0.032
      +0.104     -0.127     -0.040
      -0.130     -0.104     -0.025
      +0.003     +0.105     +0.224
      -0.511     -0.106     -0.065
vibration  6
      +0.082     -0.020     -0.027
      -0.022     +0.039     -0.414
      -0.165     -0.194     +0.224
      -0.031     +0.020     +0.106
      -0.056     +0.044     +0.112
      +0.267     -0.111     +0.018
      +0.063     +0.096     -0.182
      +0.007     +0.129     +0.023
      -0.019     +0.080     -0.076
      +0.117     +0.377     +0.598
vibration  7
      -0.111     +0.139     -0.182
      -0.009     +0.064     -0.057
      +0.058     -0.026     +0.063
      -0.079     +0.001     +0.129
      -0.380     +0.176     +0.221
      +0.299     -0.204     -0.014
      +0.317     -0.500     +0.108
      -0.118     +0.171     +0.187
      +0.001     +0.013     -0.051
      +0.128     -0.108     -0.265
vibration  8
      +0.398     +0.194     +0.036
      -0.083     +0.109     +0.026
      -0.292     -0.132     -0.005
      +0.597     -0.338     -0.186
      -0.125     +0.022     -0.024
      -0.024     -0.065     +0.022
      -0.286     -0.107     +0.032
      -0.150     +0.102     +0.075
      -0.044     +0.021     +0.009
      +0.103     +0.004     -0.088
vibration  9
      +0.028     -0.334     -0.108
      -0.221     +0.302     +0.018
      +0.100     +0.027     +0.119
      -0.135     +0.026     -0.009
      +0.438     -0.142     -0.122
      +0.336     -0.105     -0.044
      -0.342     -0.082     +0.052
      -0.062     +0.309     +0.199
      -0.069     -0.105     -0.060
      +0.005     +0.099     -0.212
vibration  10
      +0.046     -0.029     -0.167
      -0.148     +0.005     +0.361
      -0.059     +0.014     -0.193
      +0.048     -0.080     +0.012
      +0.050     +0.023     -0.003
      +0.308     -0.155     -0.040
      +0.358     +0.502     +0.092
      -0.400     -0.146     +0.012
      -0.102     -0.124     -0.083
      +0.178     -0.054     +0.079
vibration  11
      -0.014     +0.086     -0.291
      -0.005     -0.214     +0.130
      +0.219     +0.195     +0.122
      -0.054     +0.028     +0.014
      -0.277     +0.115     +0.071
      +0.285     -0.162     -0.089
      -0.618     +0.078     -0.017
      +0.019     -0.275     -0.078
      +0.098     +0.090     +0.063
      +0.007     -0.122     +0.149
vibration  12
      -0.010     +0.082     -0.138
      -0.016     +0.065     +0.185
      -0.203     -0.197     -0.088
      +0.032     -0.023     -0.024
      -0.106     +0.079     +0.037
      +0.195     -0.069     -0.038
      +0.053     +0.238     +0.047
      +0.747     +0.098     +0.186
      -0.115     -0.127     -0.057
      -0.284     -0.052     -0.053
vibration  13
      -0.084     +0.031     -0.003
      -0.190     +0.183     +0.175
      +0.027     +0.049     +0.018
      +0.107     -0.130     -0.066
      +0.142     +0.024     -0.026
      +0.174     -0.020     +0.016
      +0.109     -0.383     +0.200
      +0.172     -0.202     -0.667
      -0.088     -0.108     -0.069
      -0.068     +0.178     +0.169
vibration  14
      -0.002     -0.146     +0.263
      +0.003     +0.002     +0.002
      -0.003     -0.001     -0.007
      -0.017     +0.304     -0.644
      -0.352     -0.218     -0.085
      +0.363     +0.283     +0.088
      +0.041     -0.007     +0.008
      -0.035     +0.001     +0.004
      -0.002     -0.001     -0.003
      +0.009     -0.010     +0.005
vibration  15
      -0.128     -0.234     -0.136
      +0.038     -0.005     -0.004
      -0.004     -0.012     -0.005
      +0.080     -0.267     -0.089
      +0.137     +0.258     +0.585
      +0.071     +0.599     -0.163
      -0.038     +0.026     -0.013
      -0.034     +0.006     +0.033
      +0.007     +0.007     +0.005
      +0.011     -0.014     -0.002
vibration  16
      +0.455     -0.254     -0.182
      +0.159     +0.197     +0.229
      -0.179     -0.111     -0.070
      -0.233     +0.330     +0.172
      -0.293     -0.055     +0.173
      -0.242     +0.069     -0.151
      -0.104     -0.030     +0.143
      -0.073     +0.057     -0.203
      -0.085     -0.069     -0.040
      +0.017     +0.186     -0.035
vibration  17
      -0.346     +0.084     +0.014
      +0.550     +0.129     +0.197
      -0.220     -0.302     -0.179
      -0.081     -0.070     -0.032
      +0.111     +0.034     -0.088
      +0.176     -0.079     +0.052
      -0.144     +0.016     +0.086
      -0.119     +0.091     -0.110
      +0.217     +0.300     +0.179
      +0.036     +0.179     -0.065
vibration  18
      +0.048     +0.029     -0.022
      -0.292     -0.463     +0.123
      +0.135     +0.040     -0.008
      +0.050     -0.014     -0.014
      -0.064     +0.023     +0.028
      +0.002     +0.007     -0.013
      +0.079     +0.115     +0.019
      +0.048     +0.245     -0.094
      +0.180     +0.188     +0.103
      -0.041     +0.619     -0.314
vibration  19
      -0.146     +0.108     +0.039
      +0.426     -0.283     -0.011
      -0.076     +0.189     +0.119
      +0.015     -0.050     -0.027
      -0.007     +0.052     -0.031
      +0.030     -0.009     +0.049
      -0.119     +0.002     -0.071
      -0.092     +0.073     -0.025
      -0.431     -0.500     -0.293
      +0.014     +0.255     -0.130
vibration  20
      +0.245     -0.122     -0.059
      -0.029     +0.006     -0.025
      -0.000     +0.001     +0.000
      -0.413     -0.325     -0.148
      -0.068     +0.501     -0.260
      -0.039     +0.085     +0.533
      -0.006     +0.018     +0.076
      -0.001     +0.004     +0.001
      +0.002     +0.002     +0.001
      -0.000     -0.006     +0.003
vibration  21
      -0.034     +0.019     +0.019
      +0.035     -0.097     -0.397
      +0.006     +0.015     +0.010
      +0.041     +0.023     +0.011
      +0.008     -0.034     +0.017
      -0.010     -0.000     -0.037
      -0.057     +0.184     +0.887
      +0.001     +0.002     +0.013
      -0.002     -0.016     -0.004
      +0.001     -0.022     +0.007
vibration  22
      +0.101     +0.345     -0.252
      -0.001     -0.006     +0.003
      -0.002     +0.001     +0.001
      -0.289     -0.241     -0.101
      +0.074     -0.633     +0.336
      -0.022     +0.046     +0.365
      -0.006     +0.003     +0.005
      +0.007     -0.007     +0.000
      -0.002     -0.002     -0.001
      -0.000     +0.003     -0.001
vibration  23
      -0.185     -0.199     -0.347
      +0.004     +0.005     +0.009
      +0.003     -0.003     -0.001
      +0.464     +0.379     +0.181
      +0.005     -0.003     +0.013
      -0.029     +0.100     +0.634
      -0.009     +0.004     -0.000
      +0.000     -0.000     +0.000
      +0.004     +0.003     +0.002
      +0.000     +0.000     +0.000
vibration  24
      +0.001     -0.001     -0.001
      +0.007     +0.012     +0.009
      -0.212     +0.101     +0.068
      -0.001     +0.000     -0.000
      +0.001     -0.000     +0.000
      +0.001     -0.000     -0.000
      +0.003     -0.000     -0.003
      +0.001     +0.002     -0.001
      +0.811     -0.443     -0.295
      +0.000     -0.002     +0.001
