[Molden Format]
[FR-COORD] # Coordinates in bohr
  C    +2.387124    -0.157924    -0.394547 
  C    -0.228374    -1.100065    +0.433147 
  O    -2.084251    +0.735475    -0.306972 
  H    +2.858453    +1.930396    +0.782733 
  H    +2.465110    +0.305827    -2.391546 
  H    +3.892716    -1.448634    +0.132369 
  H    -0.606531    -2.940651    -0.451712 
  H    -0.238911    -1.396974    +2.485838 
  H    -3.702057    +0.007567    +0.292749 
  H    +3.203608    +3.423158    +1.636025 
[FREQ] # Frequencies in cm^-1
 -2670.3061
  126.7578
  247.3865
  303.5681
  450.6035
  660.5652
 1013.3018
 1039.3729
 1129.6803
 1218.2341
 1309.6338
 1369.0069
 1429.0571
 1497.7465
 1571.6915
 1587.3021
 1695.6581
 1760.7134
 1838.2594
 3080.6645
 3528.6802
 3621.2544
 3639.6864
 3766.0602
[FR-NORM-COORD] # Displacements in bohr
vibration  1
      +0.045     +0.175     +0.095
      -0.001     -0.015     -0.010
      +0.001     +0.000     +0.002
      -0.181     -0.793     -0.450
      -0.014     -0.071     -0.007
      -0.035     -0.041     -0.041
      -0.007     +0.001     +0.001
      -0.001     +0.001     -0.002
      -0.000     -0.000     -0.001
      +0.056     +0.248     +0.141
vibration  2
      -0.054     +0.137     -0.110
      +0.036     +0.186     +0.241
      -0.163     -0.227     -0.297
      +0.169     -0.086     +0.113
      -0.144     +0.197     -0.001
      -0.026     -0.060     -0.246
      +0.047     -0.029     +0.226
      +0.033     +0.222     +0.095
      -0.020     -0.045     +0.039
      +0.467     -0.278     +0.346
vibration  3
      -0.001     +0.024     +0.046
      -0.023     +0.045     +0.026
      -0.091     +0.086     +0.271
      +0.095     +0.019     -0.038
      +0.004     -0.021     +0.007
      -0.018     -0.013     +0.018
      +0.004     +0.038     -0.046
      -0.009     -0.050     +0.000
      -0.120     -0.436     -0.706
      +0.380     +0.043     -0.192
vibration  4
      -0.086     -0.107     -0.281
      +0.063     +0.032     +0.268
      +0.276     +0.128     +0.055
      -0.111     -0.062     -0.009
      -0.161     +0.022     -0.074
      +0.024     -0.016     -0.188
      -0.056     -0.036     +0.208
      +0.081     +0.147     +0.099
      +0.002     -0.080     -0.392
      -0.566     -0.136     +0.246
vibration  5
      +0.362     -0.198     -0.120
      +0.111     +0.370     -0.135
      -0.445     +0.025     +0.090
      +0.059     -0.040     -0.058
      +0.312     -0.238     -0.068
      -0.021     -0.103     +0.219
      +0.010     +0.070     +0.050
      +0.100     +0.173     -0.029
      -0.031     -0.235     +0.089
      -0.194     -0.156     +0.200
vibration  6
      -0.237     +0.187     -0.180
      -0.024     -0.116     +0.017
      +0.155     -0.029     +0.028
      -0.196     +0.184     -0.227
      +0.085     -0.423     -0.157
      +0.019     +0.350     +0.417
      -0.009     -0.047     +0.034
      +0.045     +0.002     +0.010
      +0.002     +0.074     -0.037
      +0.237     -0.212     +0.303
vibration  7
      -0.042     -0.029     +0.075
      +0.111     +0.236     +0.211
      +0.001     -0.005     -0.118
      +0.179     +0.105     -0.189
      -0.399     -0.350     -0.074
      -0.024     -0.084     -0.128
      +0.214     +0.239     -0.371
      -0.246     -0.344     -0.004
      +0.107     -0.138     +0.080
      -0.083     -0.048     +0.097
vibration  8
      +0.488     +0.036     -0.118
      -0.110     -0.272     +0.223
      -0.277     +0.038     -0.008
      +0.120     +0.094     -0.098
      -0.029     -0.056     -0.064
      +0.300     +0.141     -0.134
      -0.011     -0.046     -0.021
      -0.096     -0.162     +0.056
      -0.343     +0.396     -0.165
      -0.000     +0.093     +0.115
vibration  9
      +0.117     -0.159     +0.101
      +0.031     -0.080     +0.003
      -0.129     +0.269     -0.117
      -0.290     -0.040     -0.043
      -0.200     +0.120     +0.062
      +0.449     +0.405     -0.062
      -0.195     +0.001     +0.042
      -0.162     +0.051     +0.009
      +0.222     -0.361     +0.165
      +0.063     -0.193     -0.093
vibration  10
      -0.091     +0.030     +0.058
      +0.234     +0.149     +0.138
      -0.102     -0.061     -0.018
      -0.191     -0.221     -0.012
      +0.081     +0.197     +0.075
      +0.024     +0.128     +0.128
      +0.248     +0.104     -0.156
      +0.164     -0.178     +0.007
      -0.206     +0.263     -0.111
      -0.086     -0.548     -0.346
vibration  11
      -0.161     -0.138     +0.229
      +0.413     -0.190     -0.256
      -0.234     +0.251     +0.000
      -0.056     +0.080     +0.005
      -0.337     -0.194     +0.024
      -0.002     -0.048     -0.086
      +0.364     -0.210     +0.152
      +0.226     +0.196     -0.047
      -0.133     +0.115     -0.044
      +0.041     +0.102     +0.077
vibration  12
      +0.130     +0.204     +0.146
      -0.220     +0.025     -0.275
      +0.144     -0.126     +0.210
      +0.210     +0.004     -0.208
      -0.104     -0.053     +0.010
      +0.036     +0.013     -0.068
      +0.247     -0.169     +0.143
      -0.460     +0.346     -0.034
      -0.009     +0.050     -0.017
      -0.129     -0.353     -0.148
vibration  13
      +0.044     -0.283     +0.082
      -0.058     +0.438     -0.229
      +0.145     -0.397     +0.172
      -0.322     +0.080     +0.023
      -0.250     -0.002     +0.035
      +0.201     +0.098     -0.075
      -0.148     +0.164     -0.079
      +0.042     +0.127     -0.070
      -0.154     +0.244     -0.113
      +0.116     +0.165     +0.105
vibration  14
      +0.002     +0.164     +0.288
      -0.011     -0.028     -0.127
      +0.002     -0.061     -0.049
      +0.393     +0.061     -0.263
      -0.178     -0.074     +0.054
      +0.033     +0.034     -0.048
      -0.528     +0.066     +0.036
      +0.495     -0.035     -0.038
      -0.012     +0.012     -0.016
      -0.124     -0.210     -0.055
vibration  15
      +0.148     +0.021     +0.114
      -0.023     -0.056     +0.053
      -0.013     +0.043     -0.029
      -0.460     +0.417     -0.512
      +0.123     +0.207     +0.081
      -0.199     -0.370     -0.184
      -0.009     -0.021     +0.026
      +0.030     -0.055     +0.014
      +0.024     -0.034     +0.014
      +0.074     -0.126     +0.067
vibration  16
      +0.256     +0.350     +0.024
      +0.051     -0.071     -0.005
      -0.018     -0.008     -0.007
      -0.384     -0.080     +0.445
      -0.168     -0.421     -0.131
      -0.161     -0.236     -0.120
      -0.260     +0.020     +0.032
      -0.042     +0.013     +0.005
      -0.013     +0.006     -0.004
      +0.032     -0.164     -0.184
vibration  17
      -0.105     -0.021     -0.065
      +0.578     -0.071     -0.026
      -0.090     -0.041     +0.037
      +0.087     +0.020     -0.097
      -0.056     +0.174     +0.026
      -0.160     -0.050     +0.213
      -0.444     +0.080     +0.042
      -0.517     +0.057     -0.000
      -0.124     +0.117     -0.045
      -0.008     +0.027     +0.031
vibration  18
      +0.309     -0.011     -0.161
      -0.177     -0.013     -0.013
      +0.017     +0.029     -0.014
      -0.014     -0.028     -0.003
      -0.575     +0.289     -0.003
      -0.209     -0.093     +0.580
      +0.087     -0.072     +0.069
      +0.116     -0.084     -0.014
      +0.040     -0.041     +0.017
      +0.010     +0.010     +0.000
vibration  19
      -0.035     -0.003     +0.020
      +0.030     +0.272     -0.144
      +0.012     -0.008     +0.003
      -0.000     -0.009     +0.015
      +0.038     -0.045     -0.003
      +0.038     +0.032     -0.063
      -0.009     -0.244     +0.618
      -0.106     -0.648     -0.140
      +0.006     +0.011     -0.007
      -0.001     +0.000     -0.001
vibration  20
      +0.001     +0.000     -0.001
      +0.018     -0.017     +0.007
      -0.306     -0.110     +0.099
      +0.001     -0.000     +0.000
      +0.001     -0.000     +0.001
      +0.001     -0.001     +0.000
      -0.001     -0.013     -0.008
      +0.002     -0.001     +0.015
      +0.814     +0.362     -0.300
      -0.000     +0.000     +0.000
vibration  21
      -0.002     +0.008     -0.002
      -0.045     -0.218     +0.088
      -0.004     -0.003     +0.002
      +0.003     +0.004     +0.001
      +0.004     +0.006     -0.013
      +0.019     -0.020     +0.009
      +0.133     +0.658     +0.325
      -0.002     +0.081     -0.615
      +0.014     +0.006     -0.005
      -0.000     -0.001     -0.001
vibration  22
      +0.165     -0.075     -0.141
      -0.007     +0.006     +0.045
      -0.001     +0.000     +0.000
      -0.003     -0.002     +0.000
      -0.022     -0.161     +0.653
      -0.507     +0.428     -0.185
      -0.012     -0.055     -0.026
      -0.002     +0.016     -0.117
      +0.001     +0.000     -0.001
      +0.002     +0.009     +0.005
vibration  23
      -0.025     +0.016     +0.012
      +0.031     +0.125     +0.284
      -0.000     +0.000     +0.000
      -0.003     -0.003     -0.001
      +0.007     +0.020     -0.074
      +0.082     -0.070     +0.028
      -0.113     -0.533     -0.256
      +0.006     +0.102     -0.715
      +0.001     -0.001     -0.003
      -0.000     -0.001     -0.000
vibration  24
      +0.134     -0.165     +0.242
      -0.000     +0.001     +0.007
      -0.002     -0.000     +0.000
      -0.000     +0.001     -0.001
      +0.025     +0.154     -0.661
      -0.483     +0.414     -0.170
      -0.002     -0.005     -0.003
      +0.004     +0.005     -0.025
      +0.001     +0.001     -0.001
      -0.000     -0.000     +0.000
