[Molden Format]
[FR-COORD] # Coordinates in bohr
  C    -2.371878    -0.109682    -0.416138 
  C    +0.215041    -1.124684    +0.447377 
  O    +2.258058    +0.596248    -0.014865 
  H    -2.801944    +1.998407    +0.745907 
  H    -3.917522    -1.355792    +0.100983 
  H    -2.434515    +0.342070    -2.418206 
  H    +0.176370    -1.454161    +2.487630 
  H    +0.564349    -2.957866    -0.464246 
  H    +2.244271    +0.827217    -1.873760 
  H    -3.116272    +3.507028    +1.579479 
[FREQ] # Frequencies in cm^-1
 -2669.9354
  126.1408
  264.4828
  298.5134
  476.0068
  662.5799
  974.0565
 1067.2503
 1114.4136
 1186.0079
 1324.8328
 1361.3204
 1446.1231
 1525.3979
 1572.3427
 1588.0568
 1678.1649
 1767.2676
 1814.4464
 3077.6477
 3543.9485
 3613.3776
 3675.4724
 3756.9040
[FR-NORM-COORD] # Displacements in bohr
vibration  1
      +0.041     -0.177     -0.094
      -0.000     +0.016     +0.009
      +0.002     -0.001     -0.000
      -0.166     +0.801     +0.443
      -0.034     +0.043     +0.040
      -0.013     +0.070     +0.006
      -0.000     -0.001     +0.002
      -0.007     -0.001     -0.002
      +0.000     +0.001     -0.000
      +0.051     -0.249     -0.138
vibration  2
      -0.049     -0.136     +0.112
      +0.037     -0.180     -0.208
      -0.132     +0.125     +0.212
      +0.169     +0.083     -0.119
      -0.027     +0.064     +0.243
      -0.136     -0.199     +0.000
      +0.034     -0.198     -0.084
      +0.045     +0.022     -0.196
      -0.129     +0.312     +0.109
      +0.469     +0.271     -0.362
vibration  3
      -0.054     -0.099     -0.083
      -0.033     +0.002     -0.042
      -0.273     +0.315     +0.054
      +0.104     -0.041     +0.032
      -0.023     -0.012     -0.006
      -0.027     -0.008     -0.018
      -0.033     +0.014     -0.011
      +0.058     +0.008     +0.004
      +0.452     -0.541     -0.066
      +0.474     -0.082     +0.219
vibration  4
      -0.132     +0.071     +0.267
      +0.053     -0.005     -0.274
      +0.143     +0.013     +0.108
      -0.105     +0.056     +0.003
      +0.016     +0.004     +0.202
      -0.183     -0.035     +0.070
      +0.064     -0.171     -0.106
      -0.022     +0.069     -0.234
      +0.444     -0.284     -0.000
      -0.491     +0.139     -0.242
vibration  5
      +0.371     +0.167     +0.146
      +0.114     -0.368     +0.101
      -0.437     +0.152     -0.089
      +0.068     +0.030     +0.074
      -0.014     +0.093     -0.219
      +0.306     +0.242     +0.079
      +0.100     -0.199     +0.015
      +0.038     -0.050     -0.082
      -0.135     -0.177     -0.059
      -0.169     +0.156     -0.199
vibration  6
      -0.263     -0.178     +0.166
      -0.027     +0.127     -0.007
      +0.162     -0.024     -0.013
      -0.207     -0.176     +0.221
      +0.013     -0.358     -0.416
      +0.085     +0.418     +0.148
      +0.038     +0.005     -0.006
      -0.017     +0.046     -0.025
      +0.063     +0.040     +0.000
      +0.250     +0.198     -0.297
vibration  7
      -0.097     +0.005     -0.033
      -0.043     +0.192     +0.251
      +0.172     +0.038     -0.014
      -0.181     +0.090     -0.169
      -0.009     -0.067     -0.111
      +0.235     -0.280     -0.085
      +0.132     -0.439     -0.007
      -0.096     +0.280     -0.407
      -0.281     -0.263     -0.041
      +0.083     -0.030     +0.097
vibration  8
      +0.466     +0.027     +0.072
      -0.141     +0.349     -0.169
      -0.262     -0.197     +0.073
      -0.047     -0.068     +0.081
      +0.469     -0.341     +0.150
      -0.088     -0.036     +0.024
      -0.167     +0.051     -0.065
      -0.153     +0.100     -0.084
      -0.121     -0.107     +0.033
      +0.055     -0.047     -0.076
vibration  9
      -0.090     +0.058     -0.189
      +0.166     -0.068     +0.019
      +0.194     +0.110     +0.111
      +0.087     -0.105     +0.126
      +0.026     +0.030     +0.135
      -0.414     +0.283     +0.017
      -0.254     -0.072     -0.010
      +0.265     +0.017     +0.015
      -0.501     -0.391     -0.016
      -0.025     -0.003     -0.081
vibration  10
      -0.104     +0.111     -0.148
      +0.263     -0.203     -0.028
      -0.101     -0.022     +0.037
      -0.341     +0.217     +0.013
      +0.221     -0.308     -0.071
      -0.100     -0.200     -0.105
      +0.050     +0.066     +0.015
      +0.089     -0.123     +0.115
      -0.029     -0.017     +0.017
      -0.020     +0.551     +0.331
vibration  11
      -0.164     +0.122     -0.076
      +0.447     +0.277     +0.008
      -0.372     -0.360     +0.095
      -0.063     -0.037     -0.094
      -0.078     +0.086     +0.008
      -0.105     +0.108     -0.007
      +0.472     +0.091     +0.015
      +0.209     +0.116     -0.049
      -0.008     -0.021     +0.080
      +0.056     -0.197     -0.092
vibration  12
      -0.033     +0.363     -0.090
      +0.039     -0.306     +0.259
      +0.037     +0.149     -0.083
      -0.312     -0.103     -0.086
      +0.220     -0.125     +0.101
      -0.281     +0.058     -0.030
      +0.094     -0.148     +0.076
      -0.319     -0.128     +0.017
      +0.145     +0.126     -0.030
      +0.160     -0.366     -0.204
vibration  13
      +0.065     -0.153     -0.311
      -0.074     +0.086     +0.419
      -0.102     -0.102     -0.177
      +0.264     -0.082     +0.259
      +0.065     -0.012     +0.122
      -0.246     +0.138     -0.043
      +0.033     -0.303     +0.080
      +0.069     +0.182     -0.158
      +0.285     +0.231     -0.028
      -0.108     +0.273     +0.079
vibration  14
      +0.076     +0.089     +0.147
      -0.031     +0.001     +0.071
      -0.073     -0.118     -0.147
      -0.415     -0.005     -0.163
      -0.032     +0.096     +0.040
      +0.058     +0.002     +0.041
      -0.474     -0.145     -0.009
      +0.606     +0.133     -0.008
      +0.175     +0.147     -0.030
      +0.101     -0.091     -0.017
vibration  15
      +0.168     -0.045     -0.132
      -0.034     +0.025     -0.063
      +0.019     +0.018     +0.042
      -0.477     -0.396     +0.496
      -0.186     +0.373     +0.176
      +0.077     -0.186     -0.077
      +0.113     +0.077     -0.009
      -0.098     -0.010     -0.017
      -0.050     -0.046     +0.009
      +0.075     +0.144     -0.054
vibration  16
      -0.236     +0.363     +0.028
      -0.042     -0.072     -0.005
      +0.011     -0.017     -0.018
      +0.317     -0.110     +0.467
      +0.136     -0.208     -0.109
      +0.173     -0.442     -0.129
      -0.005     +0.012     +0.005
      +0.305     +0.022     +0.034
      +0.015     +0.014     -0.006
      -0.022     -0.163     -0.188
vibration  17
      -0.124     -0.008     +0.044
      +0.573     +0.123     +0.051
      -0.144     -0.062     -0.043
      +0.083     -0.037     +0.107
      -0.143     +0.063     -0.128
      +0.027     -0.132     -0.022
      -0.577     -0.065     -0.018
      -0.424     -0.030     -0.077
      +0.056     +0.048     +0.010
      -0.011     -0.012     -0.026
vibration  18
      +0.287     +0.016     +0.164
      -0.098     -0.005     +0.027
      +0.013     -0.001     +0.001
      -0.002     +0.031     +0.005
      -0.205     +0.088     -0.600
      -0.601     -0.287     -0.001
      +0.054     +0.093     +0.026
      +0.034     +0.064     -0.089
      +0.003     -0.001     -0.000
      +0.009     -0.016     -0.004
vibration  19
      -0.040     -0.002     -0.026
      +0.011     -0.277     +0.139
      +0.018     +0.005     -0.002
      -0.001     +0.008     -0.019
      +0.045     -0.035     +0.087
      +0.061     +0.058     +0.005
      -0.095     +0.644     +0.154
      +0.006     +0.250     -0.610
      +0.010     +0.008     -0.003
      -0.002     +0.002     +0.003
vibration  20
      +0.000     +0.001     -0.001
      +0.022     +0.015     -0.006
      -0.018     -0.058     +0.335
      +0.000     -0.001     +0.000
      -0.001     -0.000     -0.000
      -0.001     +0.000     -0.001
      +0.004     +0.002     +0.007
      -0.001     +0.011     +0.003
      -0.004     +0.118     -0.932
      -0.000     +0.000     -0.000
vibration  21
      -0.004     -0.007     -0.000
      -0.043     +0.241     -0.030
      +0.001     +0.001     +0.002
      +0.003     -0.005     -0.001
      +0.024     +0.022     -0.011
      +0.004     -0.008     +0.023
      -0.014     -0.071     +0.463
      +0.141     -0.745     -0.377
      -0.003     -0.004     -0.003
      -0.000     +0.001     +0.001
vibration  22
      +0.160     +0.064     +0.156
      -0.010     +0.012     -0.015
      -0.001     -0.000     -0.000
      -0.002     +0.002     +0.000
      -0.495     -0.393     +0.175
      -0.019     +0.166     -0.696
      -0.004     -0.008     +0.048
      +0.003     -0.014     -0.008
      +0.000     -0.000     +0.001
      +0.002     -0.009     -0.005
vibration  23
      -0.011     -0.011     +0.006
      +0.027     -0.075     -0.302
      +0.001     +0.001     -0.001
      -0.002     +0.002     +0.001
      +0.039     +0.033     -0.013
      +0.005     -0.002     +0.000
      -0.017     -0.131     +0.823
      -0.079     +0.397     +0.199
      -0.006     -0.005     +0.011
      -0.000     +0.000     +0.000
vibration  24
      +0.148     +0.164     -0.233
      +0.000     -0.000     -0.012
      -0.001     -0.000     -0.000
      -0.000     -0.000     +0.001
      -0.525     -0.424     +0.177
      +0.019     -0.141     +0.623
      +0.003     -0.008     +0.039
      -0.002     +0.009     +0.005
      -0.001     -0.000     +0.001
      +0.000     -0.000     -0.000
