[Molden Format]
[FR-COORD] # Coordinates in bohr
  C    -2.058895    -0.810808    -0.036125 
  C    +0.213707    +1.001381    +0.078849 
  O    +2.598884    -0.277284    -0.147437 
  H    -4.094669    +0.529707    +0.076666 
  H    -2.170385    -1.844843    -1.804687 
  H    -2.155783    -2.088655    +1.568086 
  H    +0.115205    +2.331266    -1.499932 
  H    +0.124733    +2.107479    +1.830291 
  H    +2.637186    -1.427830    +1.330746 
  H    -5.563787    +1.491094    +0.159890 
[FREQ] # Frequencies in cm^-1
 -2101.6500
  123.8322
  314.1885
  366.7080
  485.4016
  582.7564
  712.5371
  947.2095
  999.4165
 1015.1997
 1123.4984
 1135.9769
 1183.0989
 1184.8401
 1307.2266
 1379.6309
 1484.8560
 1674.0488
 1733.7411
 2599.7794
 2633.3127
 2741.2372
 2797.6841
 4223.1665
[FR-NORM-COORD] # Displacements in bohr
vibration  1
      +0.247     -0.153     -0.013
      -0.011     +0.015     +0.002
      +0.002     -0.002     -0.001
      -0.721     +0.473     +0.040
      -0.049     +0.015     -0.026
      -0.049     +0.011     +0.028
      -0.002     +0.001     -0.002
      -0.002     +0.001     +0.002
      +0.002     +0.000     +0.002
      +0.338     -0.221     -0.019
vibration  2
      -0.004     +0.010     -0.151
      -0.004     +0.017     -0.254
      +0.019     -0.045     +0.320
      +0.003     -0.026     +0.376
      -0.216     +0.209     -0.167
      +0.209     -0.186     -0.200
      +0.071     -0.112     -0.209
      -0.078     +0.140     -0.191
      -0.041     +0.087     +0.158
      +0.005     -0.036     +0.520
vibration  3
      +0.146     +0.218     +0.021
      +0.083     +0.274     +0.004
      -0.205     -0.279     +0.004
      -0.183     -0.254     -0.008
      +0.182     +0.057     +0.019
      +0.189     +0.072     +0.003
      +0.116     +0.105     -0.010
      +0.109     +0.120     +0.002
      -0.203     -0.187     -0.086
      -0.354     -0.541     -0.022
vibration  4
      +0.021     -0.072     +0.016
      -0.035     -0.018     -0.101
      +0.106     +0.216     +0.171
      +0.060     +0.042     +0.033
      -0.045     -0.096     +0.049
      +0.025     +0.042     +0.066
      -0.005     -0.036     -0.066
      -0.086     +0.023     -0.060
      -0.413     -0.642     -0.487
      +0.108     +0.125     +0.067
vibration  5
      -0.338     +0.159     +0.011
      +0.123     -0.247     -0.038
      +0.478     +0.192     +0.036
      -0.187     -0.004     +0.003
      -0.307     +0.048     +0.024
      -0.282     +0.089     +0.015
      +0.071     -0.090     -0.007
      +0.049     -0.101     -0.017
      +0.134     -0.045     -0.062
      -0.367     -0.333     -0.012
vibration  6
      -0.002     -0.019     +0.297
      +0.003     -0.012     +0.074
      +0.014     +0.023     -0.014
      -0.001     -0.004     +0.083
      -0.173     +0.417     -0.112
      +0.157     -0.395     -0.174
      -0.110     -0.187     -0.115
      +0.102     +0.198     -0.090
      -0.012     -0.066     -0.059
      -0.010     +0.039     -0.586
vibration  7
      -0.006     +0.003     +0.036
      +0.005     -0.028     +0.238
      -0.007     +0.027     -0.082
      -0.002     +0.014     -0.131
      +0.474     +0.129     -0.091
      -0.480     -0.105     -0.100
      -0.139     -0.333     -0.163
      +0.130     +0.345     -0.118
      +0.058     -0.063     -0.076
      -0.003     -0.027     +0.309
vibration  8
      +0.420     -0.013     -0.006
      -0.009     -0.054     -0.003
      -0.164     -0.009     -0.002
      +0.496     +0.298     +0.015
      -0.282     +0.140     -0.045
      -0.279     +0.134     +0.065
      -0.217     -0.054     -0.010
      -0.198     -0.063     +0.011
      -0.056     +0.021     +0.015
      -0.035     -0.397     -0.027
vibration  9
      +0.027     +0.110     -0.078
      -0.036     -0.164     +0.316
      -0.140     +0.066     -0.162
      +0.006     +0.064     +0.041
      -0.003     -0.019     +0.009
      +0.246     +0.123     +0.037
      +0.501     -0.308     -0.086
      -0.503     +0.143     -0.019
      +0.269     -0.067     -0.117
      -0.029     -0.012     -0.036
vibration  10
      +0.014     +0.331     +0.036
      -0.181     -0.315     -0.119
      +0.111     -0.024     +0.060
      -0.055     +0.166     +0.007
      +0.413     +0.177     -0.021
      +0.367     +0.149     +0.032
      -0.434     -0.164     -0.036
      -0.128     -0.303     +0.031
      +0.001     -0.005     +0.020
      -0.100     +0.012     +0.008
vibration  11
      +0.023     +0.030     -0.010
      -0.010     +0.252     +0.098
      +0.402     -0.334     -0.094
      -0.113     -0.212     -0.002
      -0.106     +0.017     +0.002
      -0.081     +0.037     +0.008
      -0.366     +0.144     +0.090
      -0.571     +0.240     -0.059
      +0.043     -0.052     +0.016
      +0.060     +0.090     -0.001
vibration  12
      +0.010     +0.022     -0.240
      +0.013     -0.014     +0.316
      -0.020     -0.001     +0.027
      -0.016     -0.006     -0.384
      -0.404     -0.141     -0.001
      +0.376     +0.145     +0.016
      -0.336     -0.220     -0.007
      +0.329     +0.225     +0.020
      +0.058     -0.030     -0.017
      +0.015     -0.001     +0.148
vibration  13
      -0.249     -0.074     -0.032
      +0.008     +0.107     +0.044
      +0.114     -0.083     -0.021
      +0.199     +0.590     +0.062
      +0.154     -0.370     +0.147
      +0.178     -0.308     -0.196
      -0.049     +0.143     +0.096
      -0.043     +0.201     -0.070
      +0.004     -0.015     +0.004
      -0.251     -0.130     -0.017
vibration  14
      -0.009     -0.026     +0.366
      -0.008     +0.011     -0.156
      +0.015     -0.005     -0.016
      +0.004     +0.083     -0.711
      -0.077     +0.230     +0.036
      +0.105     -0.256     -0.014
      +0.184     +0.120     +0.011
      -0.193     -0.113     -0.008
      -0.026     +0.011     +0.006
      -0.010     -0.029     +0.302
vibration  15
      -0.160     -0.306     -0.023
      -0.259     -0.131     -0.015
      +0.121     -0.049     +0.008
      +0.119     +0.096     +0.004
      +0.115     +0.332     -0.300
      +0.129     +0.287     +0.342
      +0.122     +0.272     +0.256
      +0.144     +0.299     -0.220
      +0.073     -0.034     -0.010
      +0.004     -0.079     -0.005
vibration  16
      +0.210     +0.292     +0.028
      +0.084     -0.492     -0.080
      -0.194     +0.102     +0.049
      -0.082     -0.133     -0.008
      -0.041     -0.111     +0.178
      -0.062     -0.095     -0.193
      -0.058     +0.262     +0.397
      -0.013     +0.265     -0.367
      +0.062     -0.012     -0.029
      +0.061     +0.028     +0.002
vibration  17
      -0.192     -0.231     -0.015
      +0.754     -0.057     -0.003
      -0.277     +0.124     +0.002
      -0.094     +0.058     +0.003
      +0.064     +0.101     -0.163
      +0.068     +0.075     +0.176
      -0.202     -0.005     +0.056
      -0.213     +0.009     -0.047
      -0.129     +0.063     +0.008
      -0.171     +0.097     +0.009
vibration  18
      +0.030     +0.033     -0.019
      -0.076     -0.169     +0.189
      +0.203     +0.048     -0.232
      -0.016     -0.004     -0.000
      -0.013     -0.009     +0.010
      +0.023     +0.020     -0.009
      +0.153     -0.134     +0.098
      -0.039     +0.089     -0.016
      -0.788     +0.314     +0.219
      -0.016     +0.015     +0.000
vibration  19
      -0.443     +0.154     +0.013
      +0.154     -0.001     +0.006
      -0.010     +0.021     -0.007
      +0.189     -0.109     -0.008
      +0.082     -0.001     +0.052
      +0.083     +0.007     -0.052
      -0.035     -0.014     -0.001
      -0.043     -0.006     +0.004
      -0.040     +0.018     +0.007
      +0.688     -0.456     -0.039
vibration  20
      +0.006     -0.038     +0.001
      +0.026     -0.346     -0.084
      -0.006     +0.010     -0.003
      -0.005     -0.001     +0.000
      +0.014     +0.060     +0.093
      +0.012     +0.078     -0.091
      -0.028     +0.361     -0.413
      -0.032     +0.398     +0.618
      -0.023     +0.014     +0.006
      -0.006     +0.004     +0.000
vibration  21
      -0.049     -0.340     -0.011
      +0.019     +0.078     +0.018
      -0.000     -0.002     +0.001
      +0.006     +0.008     +0.000
      +0.039     +0.321     +0.543
      +0.037     +0.421     -0.523
      +0.008     -0.053     +0.065
      +0.009     -0.063     -0.105
      +0.003     -0.003     -0.002
      -0.039     +0.022     +0.002
vibration  22
      +0.001     +0.006     -0.010
      +0.007     -0.089     +0.439
      +0.006     +0.005     -0.015
      -0.001     -0.000     -0.001
      -0.009     -0.008     -0.004
      +0.011     +0.006     +0.003
      -0.032     +0.454     -0.557
      +0.019     -0.270     -0.455
      -0.036     +0.009     +0.013
      +0.000     -0.000     -0.000
vibration  23
      -0.003     +0.021     -0.445
      +0.000     -0.001     +0.011
      +0.000     -0.000     -0.000
      +0.000     -0.000     +0.010
      +0.033     +0.323     +0.568
      -0.026     -0.374     +0.483
      -0.009     -0.005     -0.002
      +0.009     +0.007     +0.001
      +0.001     +0.000     +0.000
      -0.001     +0.001     -0.003
vibration  24
      +0.000     -0.001     +0.000
      +0.014     -0.004     -0.007
      -0.020     +0.155     -0.188
      +0.001     -0.000     +0.000
      +0.000     +0.000     +0.000
      -0.001     -0.000     -0.000
      -0.000     -0.002     +0.003
      +0.001     -0.000     +0.003
      +0.030     -0.599     +0.762
      -0.000     +0.000     +0.000
